
                                 *****************
                                 * O   R   C   A *
                                 *****************

           --- An Ab Initio, DFT and Semiempirical electronic structure package ---

                  #######################################################
                  #                        -***-                        #
                  #          Department of theory and spectroscopy      #
                  #               Directorship: Frank Neese             #
                  #        Max Planck Institute fuer Kohlenforschung    #
                  #                Kaiser Wilhelm Platz 1               #
                  #                 D-45470 Muelheim/Ruhr               #
                  #                      Germany                        #
                  #                                                     #
                  #                  All rights reserved                #
                  #                        -***-                        #
                  #######################################################


                         Program Version 4.2.1 -  RELEASE  -


 With contributions from (in alphabetic order):
   Daniel Aravena         : Magnetic Suceptibility
   Michael Atanasov       : Ab Initio Ligand Field Theory (pilot matlab implementation)
   Alexander A. Auer      : GIAO ZORA, VPT2
   Ute Becker             : Parallelization
   Giovanni Bistoni       : ED, misc. LED, open-shell LED, HFLD
   Martin Brehm           : Molecular dynamics
   Dmytro Bykov           : SCF Hessian
   Vijay G. Chilkuri      : MRCI spin determinant printing, contributions to CSF-ICE
   Dipayan Datta          : RHF DLPNO-CCSD density
   Achintya Kumar Dutta   : EOM-CC, STEOM-CC
   Dmitry Ganyushin       : Spin-Orbit,Spin-Spin,Magnetic field MRCI
   Miquel Garcia          : C-PCM Hessian, Gaussian charge scheme
   Yang Guo               : DLPNO-NEVPT2, CIM, IAO-localization
   Andreas Hansen         : Spin unrestricted coupled pair/coupled cluster methods
   Benjamin Helmich-Paris : CASSCF linear response (MC-RPA)
   Lee Huntington         : MR-EOM, pCC
   Robert Izsak           : Overlap fitted RIJCOSX, COSX-SCS-MP3, EOM
   Christian Kollmar      : KDIIS, OOCD, Brueckner-CCSD(T), CCSD density
   Simone Kossmann        : Meta GGA functionals, TD-DFT gradient, OOMP2, MP2 Hessian
   Martin Krupicka        : AUTO-CI
   Lucas Lang             : DCDCAS
   Dagmar Lenk            : GEPOL surface, SMD
   Dimitrios Liakos       : Extrapolation schemes; Compound Job, initial MDCI parallelization
   Dimitrios Manganas     : Further ROCIS development; embedding schemes
   Dimitrios Pantazis     : SARC Basis sets
   Taras Petrenko         : DFT Hessian,TD-DFT gradient, ASA, ECA, R-Raman, ABS, FL, XAS/XES, NRVS
   Peter Pinski           : DLPNO-MP2, DLPNO-MP2 Gradient
   Christoph Reimann      : Effective Core Potentials
   Marius Retegan         : Local ZFS, SOC
   Christoph Riplinger    : Optimizer, TS searches, QM/MM, DLPNO-CCSD(T), (RO)-DLPNO pert. Triples
   Tobias Risthaus        : Range-separated hybrids, TD-DFT gradient, RPA, STAB
   Michael Roemelt        : Original ROCIS implementation
   Masaaki Saitow         : Open-shell DLPNO-CCSD energy and density
   Barbara Sandhoefer     : DKH picture change effects
   Avijit Sen             : IP-ROCIS
   Kantharuban Sivalingam : CASSCF convergence, NEVPT2, FIC-MRCI
   Bernardo de Souza      : ESD, SOC TD-DFT
   Georgi Stoychev        : AutoAux, RI-MP2 NMR
   Willem Van den Heuvel  : Paramagnetic NMR
   Boris Wezisla          : Elementary symmetry handling
   Frank Wennmohs         : Technical directorship


 We gratefully acknowledge several colleagues who have allowed us to
 interface, adapt or use parts of their codes:
   Stefan Grimme, W. Hujo, H. Kruse,             : VdW corrections, initial TS optimization,
                  C. Bannwarth                     DFT functionals, gCP, sTDA/sTD-DF
   Ed Valeev, F. Pavosevic, A. Kumar             : LibInt (2-el integral package), F12 methods
   Garnet Chan, S. Sharma, J. Yang, R. Olivares  : DMRG
   Ulf Ekstrom                                   : XCFun DFT Library
   Mihaly Kallay                                 : mrcc  (arbitrary order and MRCC methods)
   Andreas Klamt, Michael Diedenhofen            : otool_cosmo (COSMO solvation model)
   Jiri Pittner, Ondrej Demel                    : Mk-CCSD
   Frank Weinhold                                : gennbo (NPA and NBO analysis)
   Christopher J. Cramer and Donald G. Truhlar   : smd solvation model
   Lars Goerigk                                  : TD-DFT with DH, B97 family of functionals
   V. Asgeirsson, H. Jonsson                     : NEB implementation
   FAccTs GmbH                                   : IRC, NEB, NEB-TS, Multilevel, MM, QM/MM, CI optimization
   S Lehtola, MJT Oliveira, MAL Marques          : LibXC Library


 Your calculation uses the libint2 library for the computation of 2-el integrals
 For citations please refer to: http://libint.valeyev.net

 Your ORCA version has been built with support for libXC version: 4.2.3
 For citations please refer to: https://tddft.org/programs/libxc/

 This ORCA versions uses:
   CBLAS   interface :  Fast vector & matrix operations
   LAPACKE interface :  Fast linear algebra routines
   SCALAPACK package :  Parallel linear algebra routines


Your calculation utilizes the atom-pairwise dispersion correction
with the Becke-Johnson damping scheme (D3BJ)
Cite in your paper:
S.Grimme, S.Ehrlich, L.Goerigk, J Comput Chem, (2011), 32, 1456–1465 
S.Grimme, J.Antony, S.Ehrlich and H.Krieg, J.Chem.Phys., 132, (2010), 154104 
   

----- Orbital basis set information -----
Your calculation utilizes the basis: ma-def2-SVP
   F. Weigend and R. Ahlrichs, Phys. Chem. Chem. Phys. 7, 3297 (2005).
   J. Zheng, X. Xu and D. G. Truhlar, Theor. Chem. Acc. 128, 295 (2011).

================================================================================
                                        WARNINGS
                       Please study these warnings very carefully!
================================================================================


WARNING: Geometry Optimization
  ===> : Switching off AutoStart
         For restart on a previous wavefunction, please use MOREAD

INFO   : the flag for use of LIBINT has been found!

================================================================================
                                       INPUT FILE
================================================================================
NAME = ethan.inp
|  1> !b3lyp ma-def2-svp d3bj opt freq
|  2> 
|  3> 
|  4> * xyz 0 1
|  5> C          2.05639       -0.16543        0.39727
|  6> C          0.68890        2.02854       -0.64816
|  7> C          2.74071        1.02327        0.12533
|  8> C          2.05734        2.11782       -0.40016
|  9> C         -3.59396        1.03209        0.04589
| 10> C          0.67738       -0.27507        0.15097
| 11> C          0.00274        0.84234       -0.35887
| 12> O          0.63293       -2.54526        0.93360
| 13> O         -1.76452        1.43252        1.56571
| 14> O         -1.24894       -1.68411        0.12975
| 15> C          0.05278       -1.58881        0.44958
| 16> C         -2.15199        1.12841        0.44513
| 17> O         -1.36167        0.82832       -0.65825
| 18> H         -1.47652       -2.60111        0.39232
| 19> H          2.60948       -1.01173        0.80284
| 20> H          0.15708        2.88266       -1.05823
| 21> H          3.80777        1.09126        0.32364
| 22> H          2.59044        3.04081       -0.61405
| 23> H         -3.81640        0.02049       -0.30287
| 24> H         -4.22480        1.24591        0.91440
| 25> H 	  -3.81296	  1.76576 	-0.73332
| 26> **                         ****END OF INPUT****
================================================================================

                       *****************************
                       * Geometry Optimization Run *
                       *****************************

Geometry optimization settings:
Update method            Update   .... BFGS
Choice of coordinates    CoordSys .... Z-matrix Internals
Initial Hessian          InHess   .... Almoef's Model

Convergence Tolerances:
Energy Change            TolE     ....  5.0000e-06 Eh
Max. Gradient            TolMAXG  ....  3.0000e-04 Eh/bohr
RMS Gradient             TolRMSG  ....  1.0000e-04 Eh/bohr
Max. Displacement        TolMAXD  ....  4.0000e-03 bohr
RMS Displacement         TolRMSD  ....  2.0000e-03 bohr
Strict Convergence                ....  False
------------------------------------------------------------------------------
                        ORCA OPTIMIZATION COORDINATE SETUP
------------------------------------------------------------------------------

The optimization will be done in new redundant internal coordinates
Making redundant internal coordinates   ...  (new redundants) done
Evaluating the initial hessian          ...  (Almloef) done
Evaluating the coordinates              ...  done
Calculating the B-matrix                .... done
Calculating the G-matrix                .... done
Diagonalizing the G-matrix              .... done
Small eigenvalue found = 1.141e-02
Small eigenvalue found = 1.718e-02
The first mode is                       ....   36
The number of degrees of freedom        ....   57

    -----------------------------------------------------------------
                    Redundant Internal Coordinates


    -----------------------------------------------------------------
         Definition                    Initial Value    Approx d2E/dq
    -----------------------------------------------------------------
      1. B(C   2,C   0)                  1.3983         0.606025   
      2. B(C   3,C   2)                  1.3933         0.617358   
      3. B(C   3,C   1)                  1.3936         0.616603   
      4. B(C   5,C   0)                  1.4051         0.591045   
      5. B(C   6,C   5)                  1.4013         0.599360   
      6. B(C   6,C   1)                  1.4006         0.601017   
      7. B(C  10,C   5)                  1.4850         0.440740   
      8. B(C  10,O   9)                  1.3438         0.663063   
      9. B(C  10,O   7)                  1.2189         1.049304   
     10. B(C  11,O   8)                  1.2241         1.029502   
     11. B(C  11,C   4)                  1.4993         0.418150   
     12. B(O  12,C  11)                  1.3900         0.559592   
     13. B(O  12,C   6)                  1.3969         0.545512   
     14. B(H  13,O   9)                  0.9806         0.482016   
     15. B(H  14,C   0)                  1.0893         0.361000   
     16. B(H  15,C   1)                  1.0865         0.364742   
     17. B(H  16,C   2)                  1.0875         0.363477   
     18. B(H  17,C   3)                  1.0871         0.363915   
     19. B(H  18,C   4)                  1.0929         0.356274   
     20. B(H  19,C   4)                  1.0945         0.354162   
     21. B(H  20,C   4)                  1.0924         0.356901   
     22. A(C   5,C   0,H  14)          120.1951         0.350215   
     23. A(C   2,C   0,C   5)          120.8334         0.428594   
     24. A(C   2,C   0,H  14)          118.9714         0.351699   
     25. A(C   3,C   1,C   6)          119.9059         0.431220   
     26. A(C   6,C   1,H  15)          120.2616         0.351819   
     27. A(C   3,C   1,H  15)          119.8309         0.353346   
     28. A(C   3,C   2,H  16)          120.0625         0.353212   
     29. A(C   0,C   2,H  16)          119.8610         0.352106   
     30. A(C   0,C   2,C   3)          120.0764         0.431958   
     31. A(C   1,C   3,H  17)          120.0596         0.353210   
     32. A(C   1,C   3,C   2)          119.8955         0.433304   
     33. A(C   2,C   3,H  17)          120.0447         0.353284   
     34. A(H  18,C   4,H  20)          110.6839         0.289946   
     35. A(C  11,C   4,H  20)          109.8520         0.329913   
     36. A(H  18,C   4,H  19)          108.4653         0.289596   
     37. A(C  11,C   4,H  19)          109.2973         0.329493   
     38. A(H  19,C   4,H  20)          108.6176         0.289676   
     39. A(C  11,C   4,H  18)          109.8880         0.329817   
     40. A(C   0,C   5,C  10)          116.5242         0.404977   
     41. A(C   0,C   5,C   6)          118.2971         0.427745   
     42. A(C   6,C   5,C  10)          125.1773         0.405978   
     43. A(C   5,C   6,O  12)          122.6968         0.418917   
     44. A(C   1,C   6,O  12)          116.2790         0.419123   
     45. A(C   1,C   6,C   5)          120.9736         0.429030   
     46. A(C  10,O   9,H  13)          103.1438         0.369568   
     47. A(O   7,C  10,O   9)          119.9950         0.477192   
     48. A(C   5,C  10,O   9)          114.9806         0.410639   
     49. A(C   5,C  10,O   7)          125.0199         0.445853   
     50. A(C   4,C  11,O  12)          108.7588         0.394858   
     51. A(C   4,C  11,O   8)          124.3447         0.440111   
     52. A(O   8,C  11,O  12)          126.8950         0.460960   
     53. A(C   6,O  12,C  11)          112.5226         0.411157   
     54. D(C   3,C   2,C   0,H  14)    179.6708         0.025346   
     55. D(H  16,C   2,C   0,C   5)    179.8946         0.025346   
     56. D(H  16,C   2,C   0,H  14)     -0.2494         0.025346   
     57. D(C   3,C   2,C   0,C   5)     -0.1851         0.025346   
     58. D(H  17,C   3,C   1,C   6)   -179.3606         0.026291   
     59. D(C   1,C   3,C   2,H  16)   -179.7545         0.026360   
     60. D(C   2,C   3,C   1,C   6)      0.4889         0.026291   
     61. D(H  17,C   3,C   2,H  16)      0.0951         0.026360   
     62. D(H  17,C   3,C   2,C   0)   -179.8251         0.026360   
     63. D(C   2,C   3,C   1,H  15)   -179.9829         0.026291   
     64. D(H  17,C   3,C   1,H  15)      0.1676         0.026291   
     65. D(C   1,C   3,C   2,C   0)      0.3254         0.026360   
     66. D(C   6,C   5,C   0,H  14)    179.3884         0.024045   
     67. D(C  10,C   5,C   0,C   2)    178.8366         0.024045   
     68. D(C   6,C   5,C   0,C   2)     -0.7574         0.024045   
     69. D(C  10,C   5,C   0,H  14)     -1.0177         0.024045   
     70. D(O  12,C   6,C   5,C  10)     -0.6580         0.024762   
     71. D(C   1,C   6,C   5,C  10)   -177.9733         0.024762   
     72. D(C   1,C   6,C   5,C   0)      1.5823         0.024762   
     73. D(O  12,C   6,C   1,H  15)      1.5268         0.024906   
     74. D(O  12,C   6,C   1,C   3)   -178.9471         0.024906   
     75. D(O  12,C   6,C   5,C   0)    178.8976         0.024762   
     76. D(C   5,C   6,C   1,H  15)    179.0072         0.024906   
     77. D(C   5,C   6,C   1,C   3)     -1.4666         0.024906   
     78. D(O   7,C  10,O   9,H  13)      0.5890         0.032601   
     79. D(C   5,C  10,O   9,H  13)    179.8629         0.032601   
     80. D(O   9,C  10,C   5,C   6)      3.2840         0.013253   
     81. D(O   9,C  10,C   5,C   0)   -176.2786         0.013253   
     82. D(O   7,C  10,C   5,C   6)   -177.4838         0.013253   
     83. D(O   7,C  10,C   5,C   0)      2.9536         0.013253   
     84. D(O   8,C  11,C   4,H  18)   -120.5464         0.012933   
     85. D(O  12,C  11,C   4,H  20)    -62.1225         0.012933   
     86. D(O  12,C  11,C   4,H  19)    178.7967         0.012933   
     87. D(O  12,C  11,C   4,H  18)     59.8802         0.012933   
     88. D(O   8,C  11,C   4,H  20)    117.4510         0.012933   
     89. D(O   8,C  11,C   4,H  19)     -1.6299         0.012933   
     90. D(C   6,O  12,C  11,O   8)      2.8520         0.022686   
     91. D(C   6,O  12,C  11,C   4)   -177.5884         0.022686   
     92. D(C  11,O  12,C   6,C   5)     86.3237         0.021507   
     93. D(C  11,O  12,C   6,C   1)    -96.2434         0.021507   
    -----------------------------------------------------------------

Number of atoms                         .... 21
Number of degrees of freedom            .... 93

         *************************************************************
         *                GEOMETRY OPTIMIZATION CYCLE   1            *
         *************************************************************
---------------------------------
CARTESIAN COORDINATES (ANGSTROEM)
---------------------------------
  C      2.056390   -0.165430    0.397270
  C      0.688900    2.028540   -0.648160
  C      2.740710    1.023270    0.125330
  C      2.057340    2.117820   -0.400160
  C     -3.593960    1.032090    0.045890
  C      0.677380   -0.275070    0.150970
  C      0.002740    0.842340   -0.358870
  O      0.632930   -2.545260    0.933600
  O     -1.764520    1.432520    1.565710
  O     -1.248940   -1.684110    0.129750
  C      0.052780   -1.588810    0.449580
  C     -2.151990    1.128410    0.445130
  O     -1.361670    0.828320   -0.658250
  H     -1.476520   -2.601110    0.392320
  H      2.609480   -1.011730    0.802840
  H      0.157080    2.882660   -1.058230
  H      3.807770    1.091260    0.323640
  H      2.590440    3.040810   -0.614050
  H     -3.816400    0.020490   -0.302870
  H     -4.224800    1.245910    0.914400
  H     -3.812960    1.765760   -0.733320

----------------------------
CARTESIAN COORDINATES (A.U.)
----------------------------
  NO LB      ZA    FRAG     MASS         X           Y           Z
   0 C     6.0000    0    12.011    3.886014   -0.312617    0.750732
   1 C     6.0000    0    12.011    1.301832    3.833385   -1.224845
   2 C     6.0000    0    12.011    5.179191    1.933700    0.236839
   3 C     6.0000    0    12.011    3.887809    4.002100   -0.756193
   4 C     6.0000    0    12.011   -6.791600    1.950367    0.086720
   5 C     6.0000    0    12.011    1.280063   -0.519807    0.285292
   6 C     6.0000    0    12.011    0.005178    1.591792   -0.678166
   7 O     8.0000    0    15.999    1.196064   -4.809844    1.764248
   8 O     8.0000    0    15.999   -3.334460    2.707070    2.958763
   9 O     8.0000    0    15.999   -2.360155   -3.182507    0.245192
  10 C     6.0000    0    12.011    0.099740   -3.002416    0.849583
  11 C     6.0000    0    12.011   -4.066672    2.132386    0.841174
  12 O     8.0000    0    15.999   -2.573183    1.565298   -1.243912
  13 H     1.0000    0     1.008   -2.790218   -4.915386    0.741377
  14 H     1.0000    0     1.008    4.931203   -1.911893    1.517148
  15 H     1.0000    0     1.008    0.296838    5.447438   -1.999765
  16 H     1.0000    0     1.008    7.195642    2.062183    0.611591
  17 H     1.0000    0     1.008    4.895222    5.746298   -1.160386
  18 H     1.0000    0     1.008   -7.211951    0.038720   -0.572341
  19 H     1.0000    0     1.008   -7.983715    2.354429    1.727966
  20 H     1.0000    0     1.008   -7.205450    3.336803   -1.385774

--------------------------------
INTERNAL COORDINATES (ANGSTROEM)
--------------------------------
 C      0   0   0     0.000000000000     0.00000000     0.00000000
 C      1   0   0     2.788629976512     0.00000000     0.00000000
 C      1   2   0     1.398303585063    59.88472900     0.00000000
 C      3   1   2     1.393260205238   120.07641087   359.83703343
 C      2   1   3     4.451685948559   103.72314830   195.31938085
 C      1   2   3     1.405116792192    60.94864847   179.97822414
 C      2   1   3     1.400562276266    59.76633715   180.81645202
 O      6   1   2     2.401717751007    91.99428743   180.04249721
 O      5   2   1     2.411855661291    48.03535368    63.79699338
 O      8   6   1     2.220177659986    62.03520066   183.12102375
 C      8   6   1     1.218870782897    30.42181640   182.64408837
 C      9   5   2     1.224056955129    30.88159891   339.06529875
 O     12   9   5     1.390002566508   126.89495812   179.49493845
 H     10   8   6     0.980624628132    74.75534092   180.13374561
 H      1   2   3     1.089320551078   178.84701343   352.75533074
 H      2   1   3     1.086513180638   179.84174797    80.62056666
 H      3   1   2     1.087458753149   119.86100173   179.91674366
 H      4   3   1     1.087131584584   120.04467787   180.17493313
 H      5   2   1     1.092907887793   110.68585400   310.69515560
 H      5   2   1     1.094526252814   129.38191740    89.10984148
 H      5   2   1     1.092428896084    86.06266812   200.05744630

---------------------------
INTERNAL COORDINATES (A.U.)
---------------------------
 C      0   0   0     0.000000000000     0.00000000     0.00000000
 C      1   0   0     5.269746944450     0.00000000     0.00000000
 C      1   2   0     2.642410827849    59.88472900     0.00000000
 C      3   1   2     2.632880221191   120.07641087   359.83703343
 C      2   1   3     8.412467277002   103.72314830   195.31938085
 C      1   2   3     2.655285923417    60.94864847   179.97822414
 C      2   1   3     2.646679135645    59.76633715   180.81645202
 O      6   1   2     4.538588800380    91.99428743   180.04249721
 O      5   2   1     4.557746674387    48.03535368    63.79699338
 O      8   6   1     4.195527746023    62.03520066   183.12102375
 C      8   6   1     2.303331972314    30.42181640   182.64408837
 C      9   5   2     2.313132417516    30.88159891   339.06529875
 O     12   9   5     2.626724176149   126.89495812   179.49493845
 H     10   8   6     1.853111987349    74.75534092   180.13374561
 H      1   2   3     2.058517513589   178.84701343   352.75533074
 H      2   1   3     2.053212352301   179.84174797    80.62056666
 H      3   1   2     2.054999225387   119.86100173   179.91674366
 H      4   3   1     2.054380966400   120.04467787   180.17493313
 H      5   2   1     2.065296597531   110.68585400   310.69515560
 H      5   2   1     2.068354864206   129.38191740    89.10984148
 H      5   2   1     2.064391434381    86.06266812   200.05744630

---------------------
BASIS SET INFORMATION
---------------------
There are 3 groups of distinct atoms

 Group   1 Type C   : 8s5p1d contracted to 4s3p1d pattern {5111/311/1}
 Group   2 Type O   : 8s5p1d contracted to 4s3p1d pattern {5111/311/1}
 Group   3 Type H   : 4s1p contracted to 2s1p pattern {31/1}

Atom   0C    basis set group =>   1
Atom   1C    basis set group =>   1
Atom   2C    basis set group =>   1
Atom   3C    basis set group =>   1
Atom   4C    basis set group =>   1
Atom   5C    basis set group =>   1
Atom   6C    basis set group =>   1
Atom   7O    basis set group =>   2
Atom   8O    basis set group =>   2
Atom   9O    basis set group =>   2
Atom  10C    basis set group =>   1
Atom  11C    basis set group =>   1
Atom  12O    basis set group =>   2
Atom  13H    basis set group =>   3
Atom  14H    basis set group =>   3
Atom  15H    basis set group =>   3
Atom  16H    basis set group =>   3
Atom  17H    basis set group =>   3
Atom  18H    basis set group =>   3
Atom  19H    basis set group =>   3
Atom  20H    basis set group =>   3
------------------------------------------------------------------------------
                           ORCA GTO INTEGRAL CALCULATION
------------------------------------------------------------------------------

                         BASIS SET STATISTICS AND STARTUP INFO

 # of primitive gaussian shells          ...  222
 # of primitive gaussian functions       ...  420
 # of contracted shells                  ...  128
 # of contracted basis functions         ...  274
 Highest angular momentum                ...    2
 Maximum contraction depth               ...    5
 Integral package used                   ... LIBINT
 Integral threshhold            Thresh   ...  2.500e-11
 Primitive cut-off              TCut     ...  2.500e-12


------------------------------ INTEGRAL EVALUATION ----------------------------


 * One electron integrals 
 Pre-screening matrix                    ... done
 Shell pair data                         ... done (   0.003 sec)

-------------------------------------------------------------------------------
                                 ORCA SCF
-------------------------------------------------------------------------------

------------
SCF SETTINGS
------------
Hamiltonian:
 Density Functional     Method          .... DFT(GTOs)
 Exchange Functional    Exchange        .... B88
   X-Alpha parameter    XAlpha          ....  0.666667
   Becke's b parameter  XBeta           ....  0.004200
 Correlation Functional Correlation     .... LYP
 LDA part of GGA corr.  LDAOpt          .... VWN-5
 Gradients option       PostSCFGGA      .... off
 Hybrid DFT is turned on
   Fraction HF Exchange ScalHFX         ....  0.200000
   Scaling of DF-GGA-X  ScalDFX         ....  0.720000
   Scaling of DF-GGA-C  ScalDFC         ....  0.810000
   Scaling of DF-LDA-C  ScalLDAC        ....  1.000000
   Perturbative correction              ....  0.000000
   Density functional embedding theory  .... OFF
   NL short-range parameter             ....  4.800000


General Settings:
 Integral files         IntName         .... ethan
 Hartree-Fock type      HFTyp           .... RHF
 Total Charge           Charge          ....    0
 Multiplicity           Mult            ....    1
 Number of Electrons    NEL             ....   94
 Basis Dimension        Dim             ....  274
 Nuclear Repulsion      ENuc            ....    782.6611615805 Eh

Convergence Acceleration:
 DIIS                   CNVDIIS         .... on
   Start iteration      DIISMaxIt       ....    12
   Startup error        DIISStart       ....  0.200000
   # of expansion vecs  DIISMaxEq       ....     5
   Bias factor          DIISBfac        ....   1.050
   Max. coefficient     DIISMaxC        ....  10.000
 Newton-Raphson         CNVNR           .... off
 SOSCF                  CNVSOSCF        .... on
   Start iteration      SOSCFMaxIt      ....   150
   Startup grad/error   SOSCFStart      ....  0.003300
 Level Shifting         CNVShift        .... on
   Level shift para.    LevelShift      ....    0.2500
   Turn off err/grad.   ShiftErr        ....    0.0010
 Zerner damping         CNVZerner       .... off
 Static damping         CNVDamp         .... on
   Fraction old density DampFac         ....    0.7000
   Max. Damping (<1)    DampMax         ....    0.9800
   Min. Damping (>=0)   DampMin         ....    0.0000
   Turn off err/grad.   DampErr         ....    0.1000
 Fernandez-Rico         CNVRico         .... off

SCF Procedure:
 Maximum # iterations   MaxIter         ....   125
 SCF integral mode      SCFMode         .... Direct
   Integral package                     .... LIBINT
 Reset frequency        DirectResetFreq ....    20
 Integral Threshold     Thresh          ....  2.500e-11 Eh
 Primitive CutOff       TCut            ....  2.500e-12 Eh

Convergence Tolerance:
 Convergence Check Mode ConvCheckMode   .... Total+1el-Energy
 Convergence forced     ConvForced      .... 0
 Energy Change          TolE            ....  1.000e-08 Eh
 1-El. energy change                    ....  1.000e-05 Eh
 Orbital Gradient       TolG            ....  1.000e-05
 Orbital Rotation angle TolX            ....  1.000e-05
 DIIS Error             TolErr          ....  5.000e-07


Diagonalization of the overlap matrix:
Smallest eigenvalue                        ... 2.794e-06
Time for diagonalization                   ...    0.011 sec
Threshold for overlap eigenvalues          ... 1.000e-08
Number of eigenvalues below threshold      ... 0
Time for construction of square roots      ...    0.005 sec
Total time needed                          ...    0.016 sec

-------------------
DFT GRID GENERATION
-------------------

General Integration Accuracy     IntAcc      ...  4.340
Radial Grid Type                 RadialGrid  ... Gauss-Chebyshev
Angular Grid (max. acc.)         AngularGrid ... Lebedev-110
Angular grid pruning method      GridPruning ... 3 (G Style)
Weight generation scheme         WeightScheme... Becke
Basis function cutoff            BFCut       ...    1.0000e-11
Integration weight cutoff        WCut        ...    1.0000e-14
Grids for H and He will be reduced by one unit

# of grid points (after initial pruning)     ...  28120 (   0.0 sec)
# of grid points (after weights+screening)   ...  25848 (   0.1 sec)
nearest neighbour list constructed           ...    0.0 sec
Grid point re-assignment to atoms done       ...    0.0 sec
Grid point division into batches done        ...    0.0 sec
Reduced shell lists constructed in    0.3 sec

Total number of grid points                  ...    25848
Total number of batches                      ...      414
Average number of points per batch           ...       62
Average number of grid points per atom       ...     1231
Average number of shells per batch           ...    88.87 (69.43%)
Average number of basis functions per batch  ...   185.00 (67.52%)
Average number of large shells per batch     ...    71.08 (79.99%)
Average number of large basis fcns per batch ...   147.33 (79.63%)
Maximum spatial batch extension              ...  17.55, 19.49, 25.60 au
Average spatial batch extension              ...   3.29,  3.47,  3.93 au

Time for grid setup =    0.447 sec

------------------------------
INITIAL GUESS: MODEL POTENTIAL
------------------------------
Loading Hartree-Fock densities                     ... done
Calculating cut-offs                               ... done
Setting up the integral package                    ... done
Initializing the effective Hamiltonian             ... done
Starting the Coulomb interaction                   ... done (   0.4 sec)
Reading the grid                                   ... done
Mapping shells                                     ... done
Starting the XC term evaluation                    ... done (   0.6 sec)
  promolecular density results
     # of electrons  =     93.995068305
     EX              =    -81.421450878
     EC              =     -3.253784450
     EX+EC           =    -84.675235328
Transforming the Hamiltonian                       ... done (   0.0 sec)
Diagonalizing the Hamiltonian                      ... done (   0.0 sec)
Back transforming the eigenvectors                 ... done (   0.0 sec)
Now organizing SCF variables                       ... done
                      ------------------
                      INITIAL GUESS DONE (   1.5 sec)
                      ------------------
--------------
SCF ITERATIONS
--------------
ITER       Energy         Delta-E        Max-DP      RMS-DP      [F,P]     Damp
               ***  Starting incremental Fock matrix formation  ***
  0   -647.5145350770   0.000000000000 0.31364385  0.00486579  0.2621005 0.7000
  1   -647.7012753303  -0.186740253282 0.27397617  0.00327469  0.0946086 0.7000
                               ***Turning on DIIS***
  2   -647.7631920107  -0.061916680403 0.92009974  0.00715205  0.0386254 0.0000
  3   -647.8754078445  -0.112215833793 0.10512067  0.00194977  0.0508231 0.0000
  4   -647.8944783717  -0.019070527203 0.03493679  0.00078049  0.0194755 0.0000
  5   -647.8968120786  -0.002333706862 0.02838966  0.00038584  0.0033315 0.0000
                      *** Initiating the SOSCF procedure ***
                           *** Shutting down DIIS ***
                      *** Re-Reading the Fockian *** 
                      *** Removing any level shift *** 
ITER      Energy       Delta-E        Grad      Rot      Max-DP    RMS-DP
  6   -647.89687551  -0.0000634266  0.000447  0.000447  0.015507  0.000157
               *** Restarting incremental Fock matrix formation ***
  7   -647.89689271  -0.0000172010  0.000145  0.000463  0.004084  0.000089
  8   -647.89689280  -0.0000000908  0.000167  0.000302  0.002640  0.000038
  9   -647.89689436  -0.0000015614  0.000098  0.000248  0.000637  0.000015
 10   -647.89689423   0.0000001275  0.000125  0.000136  0.000257  0.000007
 11   -647.89689448  -0.0000002497  0.000015  0.000052  0.000931  0.000008
 12   -647.89689447   0.0000000144  0.000024  0.000039  0.000620  0.000006
 13   -647.89689449  -0.0000000227  0.000004  0.000013  0.002380  0.000018
 14   -647.89689449   0.0000000031  0.000007  0.000008  0.000293  0.000003
                  ***Gradient check signals convergence***
              ***Rediagonalizing the Fockian in SOSCF/NRSCF***

               *****************************************************
               *                     SUCCESS                       *
               *           SCF CONVERGED AFTER  15 CYCLES          *
               *****************************************************

Setting up the final grid:

General Integration Accuracy     IntAcc      ...  4.670
Radial Grid Type                 RadialGrid  ... Gauss-Chebyshev
Angular Grid (max. acc.)         AngularGrid ... Lebedev-302
Angular grid pruning method      GridPruning ... 3 (G Style)
Weight generation scheme         WeightScheme... Becke
Basis function cutoff            BFCut       ...    1.0000e-11
Integration weight cutoff        WCut        ...    1.0000e-14
Grids for H and He will be reduced by one unit

# of grid points (after initial pruning)     ... 107908 (   0.0 sec)
# of grid points (after weights+screening)   ...  97468 (   0.4 sec)
nearest neighbour list constructed           ...    0.0 sec
Grid point re-assignment to atoms done       ...    0.0 sec
Grid point division into batches done        ...    0.4 sec
Reduced shell lists constructed in    1.6 sec

Total number of grid points                  ...    97468
Total number of batches                      ...     1534
Average number of points per batch           ...       63
Average number of grid points per atom       ...     4641
Average number of shells per batch           ...    83.00 (64.84%)
Average number of basis functions per batch  ...   171.63 (62.64%)
Average number of large shells per batch     ...    65.37 (78.76%)
Average number of large basis fcns per batch ...   134.57 (78.40%)
Maximum spatial batch extension              ...  18.32, 19.16, 21.17 au
Average spatial batch extension              ...   2.30,  2.39,  2.56 au

Final grid set up in    2.0 sec
Final integration                            ... done (   2.5 sec)
Change in XC energy                          ...     0.000001436
Integrated number of electrons               ...    94.000024277
Previous integrated no of electrons          ...    94.000889491

----------------
TOTAL SCF ENERGY
----------------

Total Energy       :         -647.89689305 Eh          -17630.17076 eV

Components:
Nuclear Repulsion  :          782.66116158 Eh           21297.29294 eV
Electronic Energy  :        -1430.55805463 Eh          -38927.46370 eV
One Electron Energy:        -2435.63466617 Eh          -66276.98872 eV
Two Electron Energy:         1005.07661154 Eh           27349.52502 eV

Virial components:
Potential Energy   :        -1289.83570256 Eh          -35098.21383 eV
Kinetic Energy     :          641.93880951 Eh           17468.04306 eV
Virial Ratio       :            2.00928139


DFT components:
N(Alpha)           :       47.000012138279 electrons
N(Beta)            :       47.000012138279 electrons
N(Total)           :       94.000024276559 electrons
E(X)               :      -65.401036413678 Eh       
E(C)               :       -3.830222428236 Eh       
E(XC)              :      -69.231258841914 Eh       
DFET-embed. en.    :        0.000000000000 Eh       

---------------
SCF CONVERGENCE
---------------

  Last Energy change         ...   -2.0601e-09  Tolerance :   1.0000e-08
  Last MAX-Density change    ...    3.3099e-03  Tolerance :   1.0000e-07
  Last RMS-Density change    ...    2.5453e-05  Tolerance :   5.0000e-09
  Last Orbital Gradient      ...    7.7194e-07  Tolerance :   1.0000e-05
  Last Orbital Rotation      ...    2.4321e-06  Tolerance :   1.0000e-05

             **** THE GBW FILE WAS UPDATED (ethan.gbw) ****
             **** DENSITY FILE WAS UPDATED (ethan.scfp) ****
             **** ENERGY FILE WAS UPDATED (ethan.en.tmp) ****
             **** THE GBW FILE WAS UPDATED (ethan.gbw) ****
             **** DENSITY FILE WAS UPDATED (ethan.scfp) ****
----------------
ORBITAL ENERGIES
----------------

  NO   OCC          E(Eh)            E(eV) 
   0   2.0000     -19.204238      -522.5739 
   1   2.0000     -19.198637      -522.4215 
   2   2.0000     -19.145677      -520.9804 
   3   2.0000     -19.137453      -520.7566 
   4   2.0000     -10.337226      -281.2902 
   5   2.0000     -10.335544      -281.2444 
   6   2.0000     -10.277668      -279.6696 
   7   2.0000     -10.225795      -278.2580 
   8   2.0000     -10.217163      -278.0231 
   9   2.0000     -10.216218      -277.9974 
  10   2.0000     -10.213333      -277.9189 
  11   2.0000     -10.209844      -277.8240 
  12   2.0000     -10.204304      -277.6732 
  13   2.0000      -1.118487       -30.4356 
  14   2.0000      -1.108241       -30.1568 
  15   2.0000      -1.025932       -27.9170 
  16   2.0000      -1.013670       -27.5834 
  17   2.0000      -0.875215       -23.8158 
  18   2.0000      -0.786712       -21.4075 
  19   2.0000      -0.778103       -21.1732 
  20   2.0000      -0.741177       -20.1684 
  21   2.0000      -0.678191       -18.4545 
  22   2.0000      -0.645846       -17.5744 
  23   2.0000      -0.610932       -16.6243 
  24   2.0000      -0.589546       -16.0424 
  25   2.0000      -0.532705       -14.4956 
  26   2.0000      -0.517638       -14.0856 
  27   2.0000      -0.502262       -13.6673 
  28   2.0000      -0.499515       -13.5925 
  29   2.0000      -0.486500       -13.2383 
  30   2.0000      -0.481118       -13.0919 
  31   2.0000      -0.467914       -12.7326 
  32   2.0000      -0.462740       -12.5918 
  33   2.0000      -0.452084       -12.3018 
  34   2.0000      -0.422710       -11.5025 
  35   2.0000      -0.420167       -11.4333 
  36   2.0000      -0.412201       -11.2165 
  37   2.0000      -0.401312       -10.9202 
  38   2.0000      -0.386953       -10.5295 
  39   2.0000      -0.377562       -10.2740 
  40   2.0000      -0.377248       -10.2654 
  41   2.0000      -0.337523        -9.1845 
  42   2.0000      -0.329436        -8.9644 
  43   2.0000      -0.298582        -8.1248 
  44   2.0000      -0.295369        -8.0374 
  45   2.0000      -0.282196        -7.6790 
  46   2.0000      -0.272596        -7.4177 
  47   0.0000      -0.071278        -1.9396 
  48   0.0000      -0.034208        -0.9308 
  49   0.0000      -0.018694        -0.5087 
  50   0.0000      -0.004341        -0.1181 
  51   0.0000       0.008555         0.2328 
  52   0.0000       0.015587         0.4241 
  53   0.0000       0.029504         0.8029 
  54   0.0000       0.030219         0.8223 
  55   0.0000       0.040793         1.1100 
  56   0.0000       0.048682         1.3247 
  57   0.0000       0.055100         1.4993 
  58   0.0000       0.060455         1.6451 
  59   0.0000       0.071079         1.9341 
  60   0.0000       0.073794         2.0080 
  61   0.0000       0.081929         2.2294 
  62   0.0000       0.083748         2.2789 
  63   0.0000       0.095469         2.5978 
  64   0.0000       0.097829         2.6621 
  65   0.0000       0.113428         3.0865 
  66   0.0000       0.116068         3.1584 
  67   0.0000       0.119332         3.2472 
  68   0.0000       0.127562         3.4712 
  69   0.0000       0.131851         3.5879 
  70   0.0000       0.137324         3.7368 
  71   0.0000       0.142525         3.8783 
  72   0.0000       0.146007         3.9731 
  73   0.0000       0.153458         4.1758 
  74   0.0000       0.156954         4.2709 
  75   0.0000       0.162776         4.4294 
  76   0.0000       0.167154         4.5485 
  77   0.0000       0.172451         4.6926 
  78   0.0000       0.175828         4.7845 
  79   0.0000       0.189714         5.1624 
  80   0.0000       0.194392         5.2897 
  81   0.0000       0.196837         5.3562 
  82   0.0000       0.203085         5.5262 
  83   0.0000       0.205798         5.6000 
  84   0.0000       0.209879         5.7111 
  85   0.0000       0.219746         5.9796 
  86   0.0000       0.223850         6.0913 
  87   0.0000       0.228498         6.2177 
  88   0.0000       0.234452         6.3798 
  89   0.0000       0.236144         6.4258 
  90   0.0000       0.237959         6.4752 
  91   0.0000       0.240145         6.5347 
  92   0.0000       0.249435         6.7875 
  93   0.0000       0.254724         6.9314 
  94   0.0000       0.266199         7.2436 
  95   0.0000       0.275658         7.5010 
  96   0.0000       0.283987         7.7277 
  97   0.0000       0.287456         7.8221 
  98   0.0000       0.296208         8.0602 
  99   0.0000       0.302157         8.2221 
 100   0.0000       0.315433         8.5834 
 101   0.0000       0.316296         8.6068 
 102   0.0000       0.325005         8.8438 
 103   0.0000       0.336077         9.1451 
 104   0.0000       0.339237         9.2311 
 105   0.0000       0.343378         9.3438 
 106   0.0000       0.348970         9.4959 
 107   0.0000       0.353662         9.6236 
 108   0.0000       0.359943         9.7946 
 109   0.0000       0.364300         9.9131 
 110   0.0000       0.375427        10.2159 
 111   0.0000       0.381869        10.3912 
 112   0.0000       0.384855        10.4724 
 113   0.0000       0.397255        10.8099 
 114   0.0000       0.398815        10.8523 
 115   0.0000       0.408401        11.1132 
 116   0.0000       0.415487        11.3060 
 117   0.0000       0.431078        11.7302 
 118   0.0000       0.438810        11.9406 
 119   0.0000       0.440520        11.9872 
 120   0.0000       0.475979        12.9520 
 121   0.0000       0.494025        13.4431 
 122   0.0000       0.520582        14.1658 
 123   0.0000       0.561867        15.2892 
 124   0.0000       0.601325        16.3629 
 125   0.0000       0.609442        16.5838 
 126   0.0000       0.625902        17.0317 
 127   0.0000       0.641771        17.4635 
 128   0.0000       0.649338        17.6694 
 129   0.0000       0.657684        17.8965 
 130   0.0000       0.667941        18.1756 
 131   0.0000       0.671676        18.2772 
 132   0.0000       0.696008        18.9393 
 133   0.0000       0.697353        18.9759 
 134   0.0000       0.707381        19.2488 
 135   0.0000       0.713795        19.4234 
 136   0.0000       0.722114        19.6497 
 137   0.0000       0.725577        19.7440 
 138   0.0000       0.733951        19.9718 
 139   0.0000       0.739012        20.1095 
 140   0.0000       0.747112        20.3300 
 141   0.0000       0.749183        20.3863 
 142   0.0000       0.757373        20.6092 
 143   0.0000       0.765455        20.8291 
 144   0.0000       0.773522        21.0486 
 145   0.0000       0.785241        21.3675 
 146   0.0000       0.785856        21.3842 
 147   0.0000       0.791134        21.5279 
 148   0.0000       0.792560        21.5667 
 149   0.0000       0.801624        21.8133 
 150   0.0000       0.816670        22.2227 
 151   0.0000       0.822984        22.3945 
 152   0.0000       0.841962        22.9109 
 153   0.0000       0.844021        22.9670 
 154   0.0000       0.855051        23.2671 
 155   0.0000       0.867193        23.5975 
 156   0.0000       0.876078        23.8393 
 157   0.0000       0.877684        23.8830 
 158   0.0000       0.895062        24.3559 
 159   0.0000       0.924363        25.1532 
 160   0.0000       0.931590        25.3499 
 161   0.0000       0.984010        26.7763 
 162   0.0000       1.043065        28.3832 
 163   0.0000       1.083833        29.4926 
 164   0.0000       1.111389        30.2424 
 165   0.0000       1.160998        31.5923 
 166   0.0000       1.210566        32.9412 
 167   0.0000       1.216727        33.1088 
 168   0.0000       1.220996        33.2250 
 169   0.0000       1.224865        33.3303 
 170   0.0000       1.245547        33.8930 
 171   0.0000       1.257132        34.2083 
 172   0.0000       1.263350        34.3775 
 173   0.0000       1.284734        34.9594 
 174   0.0000       1.296831        35.2886 
 175   0.0000       1.305837        35.5336 
 176   0.0000       1.325766        36.0759 
 177   0.0000       1.332103        36.2484 
 178   0.0000       1.365140        37.1473 
 179   0.0000       1.375852        37.4388 
 180   0.0000       1.393081        37.9077 
 181   0.0000       1.412039        38.4235 
 182   0.0000       1.421729        38.6872 
 183   0.0000       1.433823        39.0163 
 184   0.0000       1.450489        39.4698 
 185   0.0000       1.465558        39.8799 
 186   0.0000       1.484644        40.3992 
 187   0.0000       1.504124        40.9293 
 188   0.0000       1.525467        41.5101 
 189   0.0000       1.537542        41.8386 
 190   0.0000       1.574499        42.8443 
 191   0.0000       1.600667        43.5564 
 192   0.0000       1.631694        44.4007 
 193   0.0000       1.642355        44.6907 
 194   0.0000       1.668860        45.4120 
 195   0.0000       1.691531        46.0289 
 196   0.0000       1.697463        46.1903 
 197   0.0000       1.702851        46.3369 
 198   0.0000       1.735607        47.2283 
 199   0.0000       1.745338        47.4931 
 200   0.0000       1.751707        47.6664 
 201   0.0000       1.755289        47.7638 
 202   0.0000       1.773572        48.2613 
 203   0.0000       1.776186        48.3325 
 204   0.0000       1.798987        48.9529 
 205   0.0000       1.817290        49.4510 
 206   0.0000       1.822791        49.6007 
 207   0.0000       1.827794        49.7368 
 208   0.0000       1.840751        50.0894 
 209   0.0000       1.867841        50.8265 
 210   0.0000       1.893164        51.5156 
 211   0.0000       1.934600        52.6431 
 212   0.0000       1.937225        52.7146 
 213   0.0000       1.948231        53.0141 
 214   0.0000       1.965153        53.4745 
 215   0.0000       1.971169        53.6382 
 216   0.0000       2.005435        54.5707 
 217   0.0000       2.036614        55.4191 
 218   0.0000       2.059472        56.0411 
 219   0.0000       2.080102        56.6025 
 220   0.0000       2.087243        56.7968 
 221   0.0000       2.121274        57.7228 
 222   0.0000       2.129743        57.9532 
 223   0.0000       2.168628        59.0114 
 224   0.0000       2.202237        59.9259 
 225   0.0000       2.224718        60.5377 
 226   0.0000       2.239589        60.9423 
 227   0.0000       2.250156        61.2299 
 228   0.0000       2.270017        61.7703 
 229   0.0000       2.281357        62.0789 
 230   0.0000       2.283438        62.1355 
 231   0.0000       2.318178        63.0808 
 232   0.0000       2.329802        63.3971 
 233   0.0000       2.341678        63.7203 
 234   0.0000       2.391028        65.0632 
 235   0.0000       2.423848        65.9562 
 236   0.0000       2.478472        67.4427 
 237   0.0000       2.481626        67.5285 
 238   0.0000       2.526550        68.7509 
 239   0.0000       2.538130        69.0660 
 240   0.0000       2.578239        70.1575 
 241   0.0000       2.599286        70.7302 
 242   0.0000       2.625320        71.4386 
 243   0.0000       2.630310        71.5744 
 244   0.0000       2.652054        72.1661 
 245   0.0000       2.693735        73.3002 
 246   0.0000       2.708531        73.7029 
 247   0.0000       2.741691        74.6052 
 248   0.0000       2.769765        75.3691 
 249   0.0000       2.794480        76.0417 
 250   0.0000       2.814379        76.5832 
 251   0.0000       2.833676        77.1082 
 252   0.0000       2.835046        77.1455 
 253   0.0000       2.869029        78.0703 
 254   0.0000       2.894828        78.7723 
 255   0.0000       2.931746        79.7769 
 256   0.0000       2.932400        79.7947 
 257   0.0000       2.957316        80.4727 
 258   0.0000       2.973158        80.9037 
 259   0.0000       3.044326        82.8403 
 260   0.0000       3.085621        83.9640 
 261   0.0000       3.137492        85.3755 
 262   0.0000       3.170536        86.2747 
 263   0.0000       3.173297        86.3498 
 264   0.0000       3.213320        87.4389 
 265   0.0000       3.275758        89.1379 
 266   0.0000       3.347937        91.1020 
 267   0.0000       3.398668        92.4825 
 268   0.0000       3.481086        94.7252 
 269   0.0000       3.594496        97.8112 
 270   0.0000       3.669228        99.8448 
 271   0.0000       3.720447       101.2385 
 272   0.0000       3.748522       102.0025 
 273   0.0000       3.867669       105.2446 

                    ********************************
                    * MULLIKEN POPULATION ANALYSIS *
                    ********************************

-----------------------
MULLIKEN ATOMIC CHARGES
-----------------------
   0 C :   -0.249810
   1 C :    0.117839
   2 C :    0.366245
   3 C :    0.394353
   4 C :    0.277885
   5 C :    0.086436
   6 C :   -0.537334
   7 O :   -0.333140
   8 O :   -0.310945
   9 O :   -0.322523
  10 C :    0.123254
  11 C :   -0.266566
  12 O :   -0.236352
  13 H :    0.344229
  14 H :    0.074646
  15 H :    0.029636
  16 H :    0.046828
  17 H :    0.045812
  18 H :    0.121733
  19 H :    0.113264
  20 H :    0.114510
Sum of atomic charges:   -0.0000000

--------------------------------
MULLIKEN REDUCED ORBITAL CHARGES
--------------------------------
  0 C s       :     3.172935  s :     3.172935
      pz      :     0.929128  p :     3.042275
      px      :     1.212518
      py      :     0.900629
      dz2     :     0.002831  d :     0.034600
      dxz     :     0.006160
      dyz     :     0.004441
      dx2y2   :     0.010751
      dxy     :     0.010417
  1 C s       :     3.074758  s :     3.074758
      pz      :     0.947767  p :     2.774434
      px      :     0.800774
      py      :     1.025892
      dz2     :     0.002821  d :     0.032969
      dxz     :     0.005884
      dyz     :     0.004122
      dx2y2   :     0.009109
      dxy     :     0.011033
  2 C s       :     2.909437  s :     2.909437
      pz      :     0.964357  p :     2.689669
      px      :     0.880725
      py      :     0.844587
      dz2     :     0.003504  d :     0.034649
      dxz     :     0.003600
      dyz     :     0.005910
      dx2y2   :     0.011744
      dxy     :     0.009891
  3 C s       :     2.974797  s :     2.974797
      pz      :     0.939420  p :     2.595105
      px      :     0.780585
      py      :     0.875101
      dz2     :     0.003707  d :     0.035745
      dxz     :     0.006382
      dyz     :     0.003847
      dx2y2   :     0.010451
      dxy     :     0.011358
  4 C s       :     2.606326  s :     2.606326
      pz      :     1.058098  p :     3.090431
      px      :     0.963736
      py      :     1.068597
      dz2     :     0.003766  d :     0.025359
      dxz     :     0.005669
      dyz     :     0.005574
      dx2y2   :     0.008180
      dxy     :     0.002170
  5 C s       :     2.802051  s :     2.802051
      pz      :     1.033277  p :     3.074423
      px      :     1.108393
      py      :     0.932752
      dz2     :     0.004383  d :     0.037090
      dxz     :     0.006125
      dyz     :     0.004795
      dx2y2   :     0.009849
      dxy     :     0.011938
  6 C s       :     2.981449  s :     2.981449
      pz      :     1.071213  p :     3.487015
      px      :     0.878411
      py      :     1.537391
      dz2     :     0.006897  d :     0.068870
      dxz     :     0.012405
      dyz     :     0.007434
      dx2y2   :     0.021858
      dxy     :     0.020276
  7 O s       :     3.924859  s :     3.924859
      pz      :     1.383601  p :     4.390816
      px      :     1.622790
      py      :     1.384425
      dz2     :     0.002784  d :     0.017465
      dxz     :     0.002026
      dyz     :     0.004366
      dx2y2   :     0.003570
      dxy     :     0.004720
  8 O s       :     3.936536  s :     3.936536
      pz      :     1.306469  p :     4.356894
      px      :     1.683163
      py      :     1.367263
      dz2     :     0.006548  d :     0.017514
      dxz     :     0.004260
      dyz     :     0.005142
      dx2y2   :     0.000759
      dxy     :     0.000804
  9 O s       :     3.809144  s :     3.809144
      pz      :     1.718323  p :     4.499285
      px      :     1.368940
      py      :     1.412022
      dz2     :     0.001815  d :     0.014095
      dxz     :     0.002904
      dyz     :     0.001432
      dx2y2   :     0.006291
      dxy     :     0.001652
 10 C s       :     2.860373  s :     2.860373
      pz      :     0.873697  p :     2.881891
      px      :     0.903626
      py      :     1.104567
      dz2     :     0.015069  d :     0.134482
      dxz     :     0.023923
      dyz     :     0.016586
      dx2y2   :     0.047611
      dxy     :     0.031294
 11 C s       :     3.210897  s :     3.210897
      pz      :     0.843577  p :     2.928652
      px      :     1.269996
      py      :     0.815079
      dz2     :     0.034386  d :     0.127018
      dxz     :     0.044585
      dyz     :     0.025580
      dx2y2   :     0.011392
      dxy     :     0.011075
 12 O s       :     3.735384  s :     3.735384
      pz      :     1.509101  p :     4.484345
      px      :     1.265437
      py      :     1.709807
      dz2     :     0.004046  d :     0.016622
      dxz     :     0.005366
      dyz     :     0.002343
      dx2y2   :     0.003128
      dxy     :     0.001739
 13 H s       :     0.590109  s :     0.590109
      pz      :     0.016736  p :     0.065662
      px      :     0.015055
      py      :     0.033870
 14 H s       :     0.902225  s :     0.902225
      pz      :     0.005883  p :     0.023128
      px      :     0.006101
      py      :     0.011144
 15 H s       :     0.947437  s :     0.947437
      pz      :     0.006280  p :     0.022928
      px      :     0.006018
      py      :     0.010630
 16 H s       :     0.930545  s :     0.930545
      pz      :     0.004958  p :     0.022627
      px      :     0.014165
      py      :     0.003504
 17 H s       :     0.931642  s :     0.931642
      pz      :     0.004809  p :     0.022546
      px      :     0.006129
      py      :     0.011607
 18 H s       :     0.854433  s :     0.854433
      pz      :     0.006229  p :     0.023834
      px      :     0.004669
      py      :     0.012936
 19 H s       :     0.864048  s :     0.864048
      pz      :     0.010818  p :     0.022688
      px      :     0.006756
      py      :     0.005113
 20 H s       :     0.861488  s :     0.861488
      pz      :     0.009956  p :     0.024002
      px      :     0.004836
      py      :     0.009211


                     *******************************
                     * LOEWDIN POPULATION ANALYSIS *
                     *******************************

----------------------
LOEWDIN ATOMIC CHARGES
----------------------
   0 C :   -0.018986
   1 C :   -0.055146
   2 C :   -0.083014
   3 C :   -0.055159
   4 C :   -0.131513
   5 C :   -0.088220
   6 C :    0.069846
   7 O :   -0.294686
   8 O :   -0.257861
   9 O :   -0.169902
  10 C :    0.187950
  11 C :    0.163236
  12 O :   -0.258155
  13 H :    0.204031
  14 H :    0.127727
  15 H :    0.120608
  16 H :    0.105721
  17 H :    0.105848
  18 H :    0.113309
  19 H :    0.104525
  20 H :    0.109841

-------------------------------
LOEWDIN REDUCED ORBITAL CHARGES
-------------------------------
  0 C s       :     2.833466  s :     2.833466
      pz      :     0.940954  p :     3.096616
      px      :     1.074607
      py      :     1.081055
      dz2     :     0.006769  d :     0.088905
      dxz     :     0.013865
      dyz     :     0.009662
      dx2y2   :     0.029367
      dxy     :     0.029241
  1 C s       :     2.831294  s :     2.831294
      pz      :     0.992697  p :     3.136326
      px      :     1.090957
      py      :     1.052672
      dz2     :     0.007087  d :     0.087527
      dxz     :     0.013277
      dyz     :     0.009368
      dx2y2   :     0.026483
      dxy     :     0.031311
  2 C s       :     2.838925  s :     2.838925
      pz      :     0.988594  p :     3.153841
      px      :     1.070047
      py      :     1.095200
      dz2     :     0.008079  d :     0.090247
      dxz     :     0.007842
      dyz     :     0.014425
      dx2y2   :     0.031859
      dxy     :     0.028042
  3 C s       :     2.841615  s :     2.841615
      pz      :     0.955151  p :     3.121492
      px      :     1.096435
      py      :     1.069906
      dz2     :     0.008553  d :     0.092052
      dxz     :     0.014774
      dyz     :     0.008880
      dx2y2   :     0.029115
      dxy     :     0.030730
  4 C s       :     2.840858  s :     2.840858
      pz      :     1.100408  p :     3.223152
      px      :     1.025371
      py      :     1.097372
      dz2     :     0.009626  d :     0.067503
      dxz     :     0.015747
      dyz     :     0.013952
      dx2y2   :     0.022703
      dxy     :     0.005475
  5 C s       :     2.810284  s :     2.810284
      pz      :     1.030785  p :     3.176247
      px      :     1.098353
      py      :     1.047110
      dz2     :     0.010626  d :     0.101689
      dxz     :     0.014082
      dyz     :     0.011943
      dx2y2   :     0.030713
      dxy     :     0.034325
  6 C s       :     2.784341  s :     2.784341
      pz      :     0.975393  p :     2.985096
      px      :     0.895122
      py      :     1.114581
      dz2     :     0.015233  d :     0.160717
      dxz     :     0.025583
      dyz     :     0.016627
      dx2y2   :     0.053030
      dxy     :     0.050244
  7 O s       :     3.556561  s :     3.556561
      pz      :     1.450158  p :     4.706922
      px      :     1.703250
      py      :     1.553514
      dz2     :     0.004019  d :     0.031203
      dxz     :     0.003570
      dyz     :     0.007858
      dx2y2   :     0.006247
      dxy     :     0.009510
  8 O s       :     3.558836  s :     3.558836
      pz      :     1.494466  p :     4.667978
      px      :     1.755240
      py      :     1.418272
      dz2     :     0.013209  d :     0.031046
      dxz     :     0.007945
      dyz     :     0.007649
      dx2y2   :     0.001064
      dxy     :     0.001179
  9 O s       :     3.450604  s :     3.450604
      pz      :     1.731007  p :     4.691794
      px      :     1.461874
      py      :     1.498913
      dz2     :     0.003535  d :     0.027504
      dxz     :     0.004809
      dyz     :     0.002332
      dx2y2   :     0.013260
      dxy     :     0.003569
 10 C s       :     2.757791  s :     2.757791
      pz      :     0.806995  p :     2.766262
      px      :     0.923193
      py      :     1.036074
      dz2     :     0.029108  d :     0.287997
      dxz     :     0.049084
      dyz     :     0.034720
      dx2y2   :     0.107746
      dxy     :     0.067339
 11 C s       :     2.786846  s :     2.786846
      pz      :     0.970540  p :     2.776390
      px      :     1.034549
      py      :     0.771301
      dz2     :     0.080511  d :     0.273527
      dxz     :     0.100261
      dyz     :     0.049836
      dx2y2   :     0.022751
      dxy     :     0.020169
 12 O s       :     3.469407  s :     3.469407
      pz      :     1.605750  p :     4.756602
      px      :     1.385953
      py      :     1.764899
      dz2     :     0.006846  d :     0.032147
      dxz     :     0.011468
      dyz     :     0.003112
      dx2y2   :     0.007057
      dxy     :     0.003663
 13 H s       :     0.628180  s :     0.628180
      pz      :     0.044046  p :     0.167788
      px      :     0.031919
      py      :     0.091824
 14 H s       :     0.802150  s :     0.802150
      pz      :     0.017100  p :     0.070122
      px      :     0.018996
      py      :     0.034026
 15 H s       :     0.810837  s :     0.810837
      pz      :     0.018122  p :     0.068555
      px      :     0.018883
      py      :     0.031550
 16 H s       :     0.826194  s :     0.826194
      pz      :     0.014332  p :     0.068085
      px      :     0.042497
      py      :     0.011256
 17 H s       :     0.826432  s :     0.826432
      pz      :     0.013737  p :     0.067720
      px      :     0.018954
      py      :     0.035030
 18 H s       :     0.818979  s :     0.818979
      pz      :     0.015687  p :     0.067712
      px      :     0.013296
      py      :     0.038728
 19 H s       :     0.829732  s :     0.829732
      pz      :     0.031784  p :     0.065743
      px      :     0.020891
      py      :     0.013067
 20 H s       :     0.822384  s :     0.822384
      pz      :     0.028292  p :     0.067775
      px      :     0.013683
      py      :     0.025800


                      *****************************
                      * MAYER POPULATION ANALYSIS *
                      *****************************

  NA   - Mulliken gross atomic population
  ZA   - Total nuclear charge
  QA   - Mulliken gross atomic charge
  VA   - Mayer's total valence
  BVA  - Mayer's bonded valence
  FA   - Mayer's free valence

  ATOM       NA         ZA         QA         VA         BVA        FA
  0 C      6.2498     6.0000    -0.2498     4.3443     4.3443    -0.0000
  1 C      5.8822     6.0000     0.1178     4.1895     4.1895    -0.0000
  2 C      5.6338     6.0000     0.3662     3.3846     3.3846    -0.0000
  3 C      5.6056     6.0000     0.3944     3.2565     3.2565    -0.0000
  4 C      5.7221     6.0000     0.2779     3.7280     3.7280    -0.0000
  5 C      5.9136     6.0000     0.0864     4.5813     4.5813    -0.0000
  6 C      6.5373     6.0000    -0.5373     5.3252     5.3252    -0.0000
  7 O      8.3331     8.0000    -0.3331     1.8379     1.8379    -0.0000
  8 O      8.3109     8.0000    -0.3109     1.9903     1.9903     0.0000
  9 O      8.3225     8.0000    -0.3225     1.7107     1.7107     0.0000
 10 C      5.8767     6.0000     0.1233     3.9580     3.9580    -0.0000
 11 C      6.2666     6.0000    -0.2666     4.7466     4.7466    -0.0000
 12 O      8.2364     8.0000    -0.2364     1.6631     1.6631     0.0000
 13 H      0.6558     1.0000     0.3442     0.8992     0.8992     0.0000
 14 H      0.9254     1.0000     0.0746     0.9686     0.9686    -0.0000
 15 H      0.9704     1.0000     0.0296     0.9690     0.9690    -0.0000
 16 H      0.9532     1.0000     0.0468     0.9547     0.9547    -0.0000
 17 H      0.9542     1.0000     0.0458     0.9547     0.9547    -0.0000
 18 H      0.8783     1.0000     0.1217     0.9835     0.9835    -0.0000
 19 H      0.8867     1.0000     0.1133     0.9763     0.9763    -0.0000
 20 H      0.8855     1.0000     0.1145     0.9792     0.9792    -0.0000

  Mayer bond orders larger than 0.100000
B(  0-C ,  1-C ) :  -0.1530 B(  0-C ,  2-C ) :   1.2099 B(  0-C ,  3-C ) :   0.2504 
B(  0-C ,  5-C ) :   1.6150 B(  0-C ,  6-C ) :   0.4124 B(  0-C , 14-H ) :   0.8963 
B(  1-C ,  2-C ) :   0.1402 B(  1-C ,  3-C ) :   1.1734 B(  1-C ,  5-C ) :   0.3262 
B(  1-C ,  6-C ) :   1.7753 B(  1-C , 15-H ) :   0.8713 B(  2-C ,  3-C ) :   1.2788 
B(  2-C , 14-H ) :  -0.2026 B(  2-C , 16-H ) :   0.9110 B(  3-C , 15-H ) :  -0.2363 
B(  3-C , 16-H ) :  -0.1028 B(  3-C , 17-H ) :   0.9228 B(  4-C , 11-C ) :   1.2313 
B(  4-C , 18-H ) :   0.8521 B(  4-C , 19-H ) :   0.8632 B(  4-C , 20-H ) :   0.8418 
B(  5-C ,  6-C ) :   1.5459 B(  5-C ,  7-O ) :  -0.2084 B(  5-C ,  8-O ) :   0.1518 
B(  5-C , 10-C ) :   0.8027 B(  5-C , 14-H ) :   0.1008 B(  5-C , 15-H ) :   0.1665 
B(  6-C , 10-C ) :   0.1839 B(  6-C , 12-O ) :   0.9244 B(  6-C , 14-H ) :   0.1712 
B(  6-C , 15-H ) :   0.1734 B(  7-O ,  9-O ) :  -0.1226 B(  7-O , 10-C ) :   1.9867 
B(  8-O , 11-C ) :   2.1241 B(  8-O , 12-O ) :  -0.1161 B(  9-O , 10-C ) :   1.0193 
B(  9-O , 13-H ) :   0.7833 B( 11-C , 12-O ) :   0.9336 B( 11-C , 18-H ) :   0.1115 
B( 11-C , 19-H ) :   0.1256 B( 11-C , 20-H ) :   0.1277 

-------
TIMINGS
-------

Total SCF time: 0 days 0 hours 5 min 44 sec 

Total time                  ....     344.327 sec
Sum of individual times     ....     344.056 sec  ( 99.9%)

Fock matrix formation       ....     340.315 sec  ( 98.8%)
  XC integration            ....      12.250 sec  (  3.6% of F)
    Basis function eval.    ....       3.943 sec  ( 32.2% of XC)
    Density eval.           ....       2.643 sec  ( 21.6% of XC)
    XC-Functional eval.     ....       0.444 sec  (  3.6% of XC)
    XC-Potential eval.      ....       4.949 sec  ( 40.4% of XC)
Diagonalization             ....       0.097 sec  (  0.0%)
Density matrix formation    ....       0.021 sec  (  0.0%)
Population analysis         ....       0.010 sec  (  0.0%)
Initial guess               ....       1.096 sec  (  0.3%)
Orbital Transformation      ....       0.000 sec  (  0.0%)
Orbital Orthonormalization  ....       0.000 sec  (  0.0%)
DIIS solution               ....       0.035 sec  (  0.0%)
SOSCF solution              ....       0.079 sec  (  0.0%)
Grid generation             ....       2.403 sec  (  0.7%)


-------------------------------------------------------------------------------
                          DFT DISPERSION CORRECTION                            
                                                                               
                              DFTD3 V3.1  Rev 1                                
                          USING Becke-Johnson damping                          
-------------------------------------------------------------------------------
The B3LYP functional is recognized
Active option DFTDOPT                   ...         4   

molecular C6(AA) [au] = 5149.793714 


            DFT-D V3
 parameters
 s6 scaling factor         :     1.0000 
 a1 scaling factor         :     0.3981 
 s8 scaling factor         :     1.9889 
 a2 scaling factor         :     4.4211 
 ad hoc parameters k1-k3   :    16.0000     1.3333    -4.0000 

 Edisp/kcal,au: -24.722631598228  -0.039398017055 
 E6   /kcal   : -11.543030565 
 E8   /kcal   : -13.179601033 
 % E8         :  53.309862994 

-------------------------   ----------------
Dispersion correction           -0.039398017
-------------------------   ----------------


-------------------------   --------------------
FINAL SINGLE POINT ENERGY      -647.936291068663
-------------------------   --------------------

------------------------------------------------------------------------------
                         ORCA SCF GRADIENT CALCULATION
------------------------------------------------------------------------------

Gradient of the Kohn-Sham DFT energy:
Kohn-Sham wavefunction type      ... RKS
Hartree-Fock exchange scaling    ...    0.200
Number of operators              ...    1
Number of atoms                  ...   21
Basis set dimensions             ...  274
Integral neglect threshold       ... 2.5e-11
Integral primitive cutoff        ... 2.5e-12

Nuclear repulsion gradient       ... done
One Electron Gradient            ... done
Pre-screening matrix             ... done
Starting the two electron gradient:
Two electron gradient done
Exchange-correlation gradient    ... done
Dispersion correction            ... done

------------------
CARTESIAN GRADIENT
------------------

   1   C   :   -0.006627400   -0.009235891    0.001949022
   2   C   :   -0.002253072    0.004828996   -0.003111537
   3   C   :    0.002002630    0.006985717   -0.002235305
   4   C   :    0.002468181    0.001290881    0.000272416
   5   C   :    0.001584536   -0.001944667   -0.009934775
   6   C   :   -0.003242090    0.005119029   -0.002624491
   7   C   :    0.000226311   -0.010677589    0.014118285
   8   O   :   -0.000932404   -0.010150289    0.003347154
   9   O   :   -0.001206310    0.011587360    0.040089157
  10   O   :    0.004940602    0.009573353   -0.002797876
  11   C   :   -0.003211885    0.009272549   -0.004403607
  12   C   :    0.006836180   -0.004206846   -0.017069538
  13   O   :   -0.008678383   -0.006674028   -0.032035764
  14   H   :    0.003039762   -0.006755713    0.002983605
  15   H   :    0.003328717    0.003308686   -0.000302027
  16   H   :    0.004511570   -0.000715462    0.000886711
  17   H   :   -0.003134947    0.000328309   -0.000823614
  18   H   :   -0.001262092   -0.003532233    0.001194432
  19   H   :    0.000007123    0.003047428    0.005806094
  20   H   :    0.000402632   -0.001026035   -0.002185599
  21   H   :    0.001200338   -0.000423555    0.006877256

Difference to translation invariance:
           :    0.0000000000    0.0000000000    0.0000000000

Norm of the cartesian gradient     ...    0.0673036336
RMS gradient                       ...    0.0084794608
MAX gradient                       ...    0.0400891574

-------
TIMINGS
-------

Total SCF gradient time            ...      106.202 sec

One electron gradient       ....       0.376 sec  (  0.4%)
Prescreening matrices       ....       0.183 sec  (  0.2%)
Two electron gradient       ....      93.854 sec  ( 88.4%)
XC gradient                 ....      11.628 sec  ( 10.9%)
------------------------------------------------------------------------------
                         ORCA GEOMETRY RELAXATION STEP
------------------------------------------------------------------------------

Reading the OPT-File                    .... done
Getting information on internals        .... done
Copying old internal coords+grads       .... done
Making the new internal coordinates     .... (new redundants).... done
Validating the new internal coordinates .... (new redundants).... done
Calculating the B-matrix                .... done
Calculating the G,G- and P matrices     .... done
Transforming gradient to internals      .... done
Projecting the internal gradient        .... done
Number of atoms                         ....  21
Number of internal coordinates          ....  93
Current Energy                          ....  -647.936291069 Eh
Current gradient norm                   ....     0.067303634 Eh/bohr
Maximum allowed component of the step   ....  0.300
Current trust radius                    ....  0.300
Evaluating the initial hessian          ....  (Almloef) done
Projecting the Hessian                  .... done
Forming the augmented Hessian           .... done
Diagonalizing the augmented Hessian     .... done
Last element of RFO vector              ....  0.984252309
Lowest eigenvalues of augmented Hessian:
 -0.007009027  0.012933079  0.013302698  0.015497804  0.019270532
Length of the computed step             ....  0.179597569
The final length of the internal step   ....  0.179597569
Converting the step to cartesian space:
 Initial RMS(Int)=    0.0186234003
Transforming coordinates:
 Iter   0:  RMS(Cart)=    0.0891851079 RMS(Int)=    1.2985931671
 Iter   1:  RMS(Cart)=    0.0044489468 RMS(Int)=    0.0021993607
 Iter   2:  RMS(Cart)=    0.0003187329 RMS(Int)=    0.0001105449
 Iter   3:  RMS(Cart)=    0.0000362392 RMS(Int)=    0.0000168867
 Iter   4:  RMS(Cart)=    0.0000026369 RMS(Int)=    0.0000012314
 Iter   5:  RMS(Cart)=    0.0000002935 RMS(Int)=    0.0000001397
 Iter   6:  RMS(Cart)=    0.0000000225 RMS(Int)=    0.0000000130
done
Storing new coordinates                 .... done

                                .--------------------.
          ----------------------|Geometry convergence|-------------------------
          Item                value                   Tolerance       Converged
          ---------------------------------------------------------------------
          RMS gradient        0.0063809242            0.0001000000      NO
          MAX gradient        0.0391937113            0.0003000000      NO
          RMS step            0.0186234003            0.0020000000      NO
          MAX step            0.0641622623            0.0040000000      NO
          ........................................................
          Max(Bonds)      0.0200      Max(Angles)    3.16
          Max(Dihed)        3.68      Max(Improp)    0.00
          ---------------------------------------------------------------------

The optimization has not yet converged - more geometry cycles are needed


    ---------------------------------------------------------------------------
                         Redundant Internal Coordinates
                            (Angstroem and degrees)

        Definition                    Value    dE/dq     Step     New-Value
    ----------------------------------------------------------------------------
     1. B(C   2,C   0)                1.3983  0.004516 -0.0039    1.3944   
     2. B(C   3,C   2)                1.3933 -0.005225  0.0044    1.3977   
     3. B(C   3,C   1)                1.3936 -0.002179  0.0019    1.3955   
     4. B(C   5,C   0)                1.4051 -0.001066  0.0009    1.4060   
     5. B(C   6,C   5)                1.4013 -0.005155  0.0045    1.4058   
     6. B(C   6,C   1)                1.4006  0.005200 -0.0045    1.3960   
     7. B(C  10,C   5)                1.4850 -0.003510  0.0041    1.4891   
     8. B(C  10,O   9)                1.3438 -0.007983  0.0063    1.3501   
     9. B(C  10,O   7)                1.2189  0.008852 -0.0044    1.2144   
    10. B(C  11,O   8)                1.2241  0.039194 -0.0200    1.2040   
    11. B(C  11,C   4)                1.4993 -0.003191  0.0040    1.5033   
    12. B(O  12,C  11)                1.3900  0.015202 -0.0142    1.3758   
    13. B(O  12,C   6)                1.3969  0.001678 -0.0016    1.3953   
    14. B(H  13,O   9)                0.9806  0.006412 -0.0069    0.9737   
    15. B(H  14,C   0)                1.0893 -0.000995  0.0014    1.0908   
    16. B(H  15,C   1)                1.0865 -0.003104  0.0044    1.0909   
    17. B(H  16,C   2)                1.0875 -0.003206  0.0046    1.0920   
    18. B(H  17,C   3)                1.0871 -0.003851  0.0055    1.0926   
    19. B(H  18,C   4)                1.0929 -0.004668  0.0068    1.0997   
    20. B(H  19,C   4)                1.0945 -0.002170  0.0032    1.0977   
    21. B(H  20,C   4)                1.0924 -0.005432  0.0079    1.1003   
    22. A(C   5,C   0,H  14)          120.20  0.005651   -0.88    119.31   
    23. A(C   2,C   0,C   5)          120.83 -0.001834    0.25    121.09   
    24. A(C   2,C   0,H  14)          118.97 -0.003818    0.63    119.60   
    25. A(C   3,C   1,C   6)          119.91 -0.000617    0.09    120.00   
    26. A(C   6,C   1,H  15)          120.26  0.003854   -0.61    119.65   
    27. A(C   3,C   1,H  15)          119.83 -0.003240    0.52    120.35   
    28. A(C   3,C   2,H  16)          120.06 -0.001434    0.21    120.27   
    29. A(C   0,C   2,H  16)          119.86 -0.000234    0.02    119.88   
    30. A(C   0,C   2,C   3)          120.08  0.001668   -0.23    119.85   
    31. A(C   1,C   3,H  17)          120.06  0.000911   -0.15    119.91   
    32. A(C   1,C   3,C   2)          119.90 -0.000225    0.04    119.94   
    33. A(C   2,C   3,H  17)          120.04 -0.000686    0.11    120.15   
    34. A(H  18,C   4,H  20)          110.68  0.003693   -1.28    109.41   
    35. A(C  11,C   4,H  20)          109.85 -0.001143    0.06    109.91   
    36. A(H  18,C   4,H  19)          108.47 -0.002215    0.73    109.20   
    37. A(C  11,C   4,H  19)          109.30  0.000408    0.19    109.49   
    38. A(H  19,C   4,H  20)          108.62 -0.001291    0.54    109.15   
    39. A(C  11,C   4,H  18)          109.89  0.000489   -0.21    109.68   
    40. A(C   0,C   5,C  10)          116.52  0.002170   -0.30    116.23   
    41. A(C   0,C   5,C   6)          118.30  0.000597   -0.08    118.21   
    42. A(C   6,C   5,C  10)          125.18 -0.002770    0.39    125.57   
    43. A(C   5,C   6,O  12)          122.70  0.002842   -0.38    122.32   
    44. A(C   1,C   6,O  12)          116.28 -0.003240    0.44    116.72   
    45. A(C   1,C   6,C   5)          120.97  0.000395   -0.05    120.92   
    46. A(C  10,O   9,H  13)          103.14 -0.008827    1.34    104.49   
    47. A(O   7,C  10,O   9)          120.00 -0.005319    0.64    120.63   
    48. A(C   5,C  10,O   9)          114.98 -0.003328    0.47    115.45   
    49. A(C   5,C  10,O   7)          125.02  0.008639   -1.08    123.94   
    50. A(C   4,C  11,O  12)          108.76 -0.010641    1.42    110.18   
    51. A(C   4,C  11,O   8)          124.34 -0.011285    1.36    125.70   
    52. A(O   8,C  11,O  12)          126.89  0.021924   -2.77    124.13   
    53. A(C   6,O  12,C  11)          112.52 -0.023048    3.16    115.68   
    54. D(C   3,C   2,C   0,H  14)    179.67 -0.000287    0.50    180.17   
    55. D(H  16,C   2,C   0,C   5)    179.89  0.000067   -0.12    179.77   
    56. D(H  16,C   2,C   0,H  14)     -0.25 -0.000136    0.23     -0.02   
    57. D(C   3,C   2,C   0,C   5)     -0.19 -0.000083    0.14     -0.04   
    58. D(H  17,C   3,C   1,C   6)   -179.36  0.000294   -0.53   -179.89   
    59. D(C   1,C   3,C   2,H  16)   -179.75 -0.000033    0.06   -179.69   
    60. D(C   2,C   3,C   1,C   6)      0.49  0.000208   -0.41      0.08   
    61. D(H  17,C   3,C   2,H  16)      0.10 -0.000117    0.18      0.28   
    62. D(H  17,C   3,C   2,C   0)   -179.83  0.000032   -0.08   -179.90   
    63. D(C   2,C   3,C   1,H  15)   -179.98 -0.000104    0.14   -179.85   
    64. D(H  17,C   3,C   1,H  15)      0.17 -0.000018    0.02      0.18   
    65. D(C   1,C   3,C   2,C   0)      0.33  0.000116   -0.20      0.13   
    66. D(C   6,C   5,C   0,H  14)    179.39 -0.000110    0.16    179.55   
    67. D(C  10,C   5,C   0,C   2)    178.84 -0.000797    1.44    180.28   
    68. D(C   6,C   5,C   0,C   2)     -0.76 -0.000330    0.52     -0.23   
    69. D(C  10,C   5,C   0,H  14)     -1.02 -0.000577    1.08      0.07   
    70. D(O  12,C   6,C   5,C  10)     -0.66  0.000998   -1.99     -2.64   
    71. D(C   1,C   6,C   5,C  10)   -177.97  0.001158   -2.15   -180.12   
    72. D(C   1,C   6,C   5,C   0)      1.58  0.000670   -1.15      0.44   
    73. D(O  12,C   6,C   1,H  15)      1.53 -0.000284    0.41      1.94   
    74. D(O  12,C   6,C   1,C   3)   -178.95 -0.000632    0.97   -177.98   
    75. D(O  12,C   6,C   5,C   0)    178.90  0.000510   -0.98    177.92   
    76. D(C   5,C   6,C   1,H  15)    179.01 -0.000284    0.55    179.55   
    77. D(C   5,C   6,C   1,C   3)     -1.47 -0.000631    1.10     -0.36   
    78. D(O   7,C  10,O   9,H  13)      0.59  0.000123   -0.49      0.10   
    79. D(C   5,C  10,O   9,H  13)    179.86 -0.000506    1.05    180.91   
    80. D(O   9,C  10,C   5,C   6)      3.28  0.000667   -1.79      1.50   
    81. D(O   9,C  10,C   5,C   0)   -176.28  0.001153   -2.78   -179.05   
    82. D(O   7,C  10,C   5,C   6)   -177.48 -0.000120   -0.15   -177.63   
    83. D(O   7,C  10,C   5,C   0)      2.95  0.000366   -1.13      1.82   
    84. D(O   8,C  11,C   4,H  18)   -120.55  0.001981   -0.45   -120.99   
    85. D(O  12,C  11,C   4,H  20)    -62.12 -0.002014    0.65    -61.47   
    86. D(O  12,C  11,C   4,H  19)    178.80  0.000002   -0.15    178.65   
    87. D(O  12,C  11,C   4,H  18)     59.88  0.002165   -1.03     58.85   
    88. D(O   8,C  11,C   4,H  20)    117.45 -0.002198    1.24    118.69   
    89. D(O   8,C  11,C   4,H  19)     -1.63 -0.000182    0.44     -1.19   
    90. D(C   6,O  12,C  11,O   8)      2.85  0.000782   -1.46      1.39   
    91. D(C   6,O  12,C  11,C   4)   -177.59  0.000406   -0.83   -178.42   
    92. D(C  11,O  12,C   6,C   5)     86.32  0.001829   -3.68     82.65   
    93. D(C  11,O  12,C   6,C   1)    -96.24  0.001758   -3.53    -99.77   
    ----------------------------------------------------------------------------

         *************************************************************
         *                GEOMETRY OPTIMIZATION CYCLE   2            *
         *************************************************************
---------------------------------
CARTESIAN COORDINATES (ANGSTROEM)
[...]
      4      -0.007259   0.000010   0.000049   0.000179   0.018464  -0.024580
      5      -0.003622  -0.000011  -0.000021  -0.000072  -0.007598   0.010310
      6      -0.005153  -0.000002   0.000004   0.000138   0.042264   0.067959
      7       0.005370   0.000003  -0.000002   0.000023   0.002341  -0.001368
      8      -0.002232  -0.000002  -0.000001   0.000011   0.004999   0.009841
      9       0.015641   0.000001   0.000001  -0.000244  -0.036373   0.016499
     10      -0.006805  -0.000007   0.000009  -0.000432  -0.057275   0.032888
     11       0.003896  -0.000001  -0.000005   0.000123   0.015594  -0.009530
     12      -0.065069  -0.041167   0.002606  -0.039403   0.000241  -0.000058
     13      -0.004554  -0.005311  -0.091643   0.008243  -0.000041  -0.000008
     14      -0.052971  -0.030014   0.010452   0.085443  -0.000558   0.000168
     15      -0.019166   0.000011  -0.000012  -0.000036   0.000263   0.000217
     16       0.016556  -0.000005  -0.000001   0.000019   0.000246   0.000249
     17      -0.010735   0.000013  -0.000001  -0.000025  -0.000045  -0.000064
     18       0.046915  -0.000172   0.000008   0.000292  -0.000575   0.000908
     19      -0.007638  -0.000045   0.000045   0.000009  -0.000404   0.000586
     20       0.029080   0.000067  -0.000030  -0.000005   0.000097  -0.000108
     21      -0.014641   0.000002   0.000036  -0.000011   0.000077   0.000185
     22       0.024459   0.000000  -0.000015   0.000024   0.000031   0.000001
     23      -0.015084   0.000004   0.000016  -0.000019   0.000008   0.000040
     24      -0.165246   0.000064   0.000023  -0.000215  -0.000003   0.000011
     25      -0.028451   0.000011  -0.000220  -0.000063  -0.000007   0.000002
     26      -0.483459   0.000474   0.000051  -0.000997   0.000059  -0.000029
     27      -0.001321   0.000041   0.000123  -0.000019   0.000020  -0.000011
     28       0.003180  -0.000005   0.000016  -0.000000  -0.000012  -0.000046
     29      -0.004751  -0.000006  -0.000014  -0.000009   0.000009   0.000015
     30       0.019651  -0.000001  -0.000134   0.000011  -0.000138  -0.000131
     31      -0.042094  -0.000013  -0.000021  -0.000044  -0.000022   0.000230
     32       0.026870  -0.000004  -0.000025   0.000025  -0.000032  -0.000122
     33       0.324526   0.002023  -0.000369   0.000839   0.000125  -0.000106
     34       0.045112  -0.000024  -0.000738   0.000231   0.000026  -0.000014
     35       0.720003  -0.000276  -0.000062   0.002555  -0.000136   0.000060
     36      -0.041188   0.000125   0.000016   0.000185  -0.000073  -0.000067
     37      -0.000007   0.000020   0.000065   0.000006  -0.000031   0.000009
     38      -0.028944   0.000028  -0.000024  -0.000287   0.000018  -0.000026
     39       0.028407  -0.000023  -0.000228  -0.000096   0.000004  -0.000007
     40      -0.000535   0.000079  -0.000011   0.000249   0.000110   0.000326
     41       0.021734   0.000177   0.000295  -0.000045  -0.000094  -0.000168
     42      -0.011290  -0.000035  -0.000138   0.000283   0.060217   0.144049
     43      -0.009532   0.000047   0.000147  -0.000608  -0.106013  -0.252419
     44       0.003148  -0.000031  -0.000063   0.000256   0.046283   0.110264
     45       0.030352  -0.000166   0.000414   0.001492   0.127970  -0.167844
     46       0.033290   0.000277  -0.000580  -0.002272  -0.212356   0.277612
     47       0.004563  -0.000107   0.000249   0.001009   0.091374  -0.119492
     48      -0.006024   0.000005  -0.000044  -0.001807  -0.499796  -0.767598
     49      -0.000090  -0.000005   0.000010  -0.000023  -0.006968  -0.006218
     50       0.000699   0.000012  -0.000003  -0.000239  -0.066627  -0.103913
     51      -0.013916  -0.000019  -0.000028   0.003002   0.415410  -0.212552
     52       0.012375  -0.000003  -0.000040   0.004909   0.667527  -0.348832
     53      -0.003888   0.000011   0.000017  -0.001346  -0.182880   0.096149
     54      -0.076752   0.086796   0.102944  -0.046755   0.000278  -0.000057
     55       0.034983   0.559867   0.608644  -0.264087   0.001682  -0.000373
     56      -0.100613   0.291727   0.336042  -0.129537   0.000815  -0.000178
     57       0.154157   0.278796  -0.012681   0.561775  -0.003635   0.001009
     58       0.017064  -0.038556  -0.011206  -0.075997   0.000475  -0.000133
     59       0.163963  -0.351174   0.017145  -0.690837   0.004425  -0.001251
     60      -0.088209   0.098987  -0.118351  -0.056870   0.000430  -0.000177
     61      -0.062708  -0.457771   0.505327   0.239645  -0.001667   0.000595
     62      -0.099383   0.411573  -0.477045  -0.207433   0.001453  -0.000542
                  60         61         62    
      0       0.010379   0.035390  -0.000027
      1      -0.017531  -0.066186  -0.000070
      2       0.007681   0.028538   0.000005
      3       0.039403  -0.007888   0.000015
      4      -0.062343   0.011763  -0.000002
      5       0.027104  -0.005180   0.000008
      6      -0.007841   0.033486  -0.000039
      7       0.002436   0.003070   0.000081
      8      -0.001925   0.003561  -0.000036
      9      -0.020673   0.005804   0.000022
     10      -0.027890   0.011220  -0.000011
     11       0.007183  -0.003216   0.000004
     12      -0.000008  -0.000008  -0.000015
     13      -0.000041   0.000030  -0.000017
     14       0.000099   0.000016  -0.000021
     15      -0.001097  -0.002658   0.000393
     16       0.000129  -0.000352   0.000611
     17      -0.000167  -0.000250  -0.000149
     18       0.002869  -0.000882   0.000043
     19       0.002916  -0.000098  -0.000040
     20      -0.000751  -0.000054   0.000060
     21      -0.000153  -0.000485   0.000724
     22      -0.000045   0.000088  -0.000354
     23      -0.000016  -0.000141   0.000378
     24       0.000022  -0.000003  -0.000042
     25       0.000014  -0.000010   0.000060
     26       0.000017  -0.000021  -0.000001
     27      -0.000031   0.000101  -0.020457
     28       0.000038   0.000159  -0.055040
     29      -0.000017  -0.000029   0.017979
     30       0.000303   0.000467  -0.002016
     31      -0.000078  -0.000827  -0.001957
     32       0.000080   0.000415   0.000232
     33      -0.000151  -0.000006   0.000094
     34      -0.000061   0.000034  -0.000091
     35      -0.000099   0.000063   0.000046
     36      -0.000379   0.000105   0.000001
     37      -0.000064  -0.000012   0.000058
     38       0.000065  -0.000016  -0.000020
     39       0.000036   0.000344   0.332112
     40      -0.000152  -0.000159   0.894482
     41       0.000105   0.000258  -0.292955
     42      -0.115956  -0.412319  -0.000416
     43       0.205444   0.737837   0.000231
     44      -0.089637  -0.321345  -0.000080
     45      -0.433035   0.081355   0.000025
     46       0.704978  -0.131645   0.000028
     47      -0.304448   0.056906  -0.000011
     48       0.083968  -0.356586   0.000235
     49      -0.001633  -0.006018  -0.000039
     50       0.012180  -0.047348   0.000067
     51       0.197295  -0.067548   0.000024
     52       0.312597  -0.110553   0.000074
     53      -0.085272   0.030413  -0.000024
     54       0.000066  -0.000083   0.000286
     55       0.000053  -0.000272   0.000133
     56       0.000064  -0.000178   0.000086
     57       0.000162   0.000211  -0.000105
     58      -0.000021  -0.000013   0.000130
     59      -0.000386  -0.000200   0.000140
     60      -0.000190   0.000027  -0.000093
     61       0.000587  -0.000089   0.000097
     62      -0.000540   0.000069  -0.000016


-----------
IR SPECTRUM
-----------

 Mode    freq (cm**-1)   T**2         TX         TY         TZ
-------------------------------------------------------------------
   6:        36.20    1.386304  ( -0.108139  -0.498371   1.061243)
   7:        71.48    2.599667  (  0.434015  -1.551735  -0.058465)
   8:        82.87    0.343710  (  0.520201  -0.070200  -0.261098)
   9:        91.06    1.189941  ( -0.069428  -1.050922   0.284050)
  10:       105.41    2.285804  (  0.584207  -0.795774  -1.145098)
  11:       139.08    3.426679  (  0.725549  -0.651548  -1.573450)
  12:       231.48    4.192055  (  0.891360   1.544750  -1.005624)
  13:       276.52    1.021902  ( -0.968920  -0.156640  -0.241992)
  14:       312.29    1.290426  (  0.507524  -0.351577  -0.953540)
  15:       363.90    0.272448  ( -0.312305   0.413605   0.062002)
  16:       410.23    8.239793  (  2.624163   0.650499   0.964579)
  17:       442.91    5.883572  (  0.699449  -0.800932  -2.180103)
  18:       519.84    1.531161  ( -1.061411  -0.310287  -0.555238)
  19:       547.05    3.188770  ( -1.737316   0.395666  -0.118113)
  20:       558.12    1.677444  ( -0.513527   1.013809   0.621229)
  21:       597.28    9.311349  (  0.857463   2.747504  -1.013570)
  22:       602.20   63.901836  ( -1.597563   4.097147   6.675553)
  23:       640.29   24.166012  (  3.124160   3.786487  -0.261065)
  24:       672.95   21.482773  ( -4.321786  -1.610321  -0.460226)
  25:       727.07   55.985499  ( -2.483598   1.977341   6.775497)
  26:       752.35   33.597197  (  0.240324   4.512768   3.629651)
  27:       780.47   18.258382  ( -0.504367   0.260544   4.235105)
  28:       818.82    0.442389  (  0.476336  -0.374040   0.274931)
  29:       844.01   18.791840  (  0.601355   1.134499   4.140426)
  30:       903.19    4.911480  ( -2.180925  -0.284927   0.271773)
  31:       943.20   33.414991  ( -4.089327   0.607974   4.040144)
  32:       997.11    3.422303  ( -0.843536   0.264851   1.624994)
  33:      1012.22   38.690503  ( -6.022485   0.307575   1.524985)
  34:      1017.32    0.034015  (  0.016363   0.030845  -0.181096)
  35:      1047.25    6.329635  ( -0.993646   2.275896  -0.403236)
  36:      1059.84   17.346197  (  3.365980   2.433907   0.304087)
  37:      1110.99   11.593576  (  2.315066  -2.127037  -1.307578)
  38:      1130.21   84.096563  ( -8.142295  -3.061747  -2.902638)
  39:      1166.92    7.614259  (  0.074894  -2.698530  -0.571476)
  40:      1204.82   59.257522  (  2.093652   6.260894   3.959211)
  41:      1234.90  696.841737  (-25.438895   1.105134   6.962976)
  42:      1244.92   14.654859  (  1.137023   3.285786  -1.601763)
  43:      1282.69   46.252810  ( -6.560088  -1.607018   0.797217)
  44:      1366.27   31.210709  ( -4.626463  -2.886929   1.213338)
  45:      1379.52  223.848800  ( 13.905938   5.485599  -0.617964)
  46:      1382.38   24.367740  ( -3.758024   3.200277  -0.056741)
  47:      1439.14   14.297738  (  0.610974   0.273673   3.721499)
  48:      1446.53    9.845556  (  1.233335  -2.881227   0.151558)
  49:      1484.99   85.684893  (  8.934187   2.400289  -0.322203)
  50:      1517.54   22.887484  ( -4.365435   1.952855   0.129682)
  51:      1626.61    6.897875  (  2.334780  -1.068164  -0.552907)
  52:      1662.22   67.523665  ( -4.980498  -6.137157   2.248022)
  53:      1803.54  391.796761  (  8.665300 -16.077851   7.629681)
  54:      1850.42  254.702290  (  2.476215   0.682154  15.751359)
  55:      3051.94    0.853038  ( -0.793330   0.136807  -0.452714)
  56:      3131.61    1.350276  (  0.319176  -1.076744   0.298372)
  57:      3176.81    2.985772  ( -1.474375   0.110424   0.894314)
  58:      3182.17    2.049700  ( -0.312385  -1.289518   0.537827)
  59:      3195.68    6.104951  (  2.439307   0.345907   0.187293)
  60:      3205.75    1.432129  (  0.192662  -1.110005   0.403607)
  61:      3212.24    3.845401  (  1.268770   1.426930  -0.446650)
  62:      3754.63  114.566303  (  5.725120   8.844429  -1.888221)

The first frequency considered to be a vibration is 6
The total number of vibrations considered is 57


--------------------------
THERMOCHEMISTRY AT 298.15K
--------------------------

Temperature         ... 298.15 K
Pressure            ... 1.00 atm
Total Mass          ... 180.16 AMU

Throughout the following assumptions are being made:
  (1) The electronic state is orbitally nondegenerate
  (2) There are no thermally accessible electronically excited states
  (3) Hindered rotations indicated by low frequency modes are not
      treated as such but are treated as vibrations and this may
      cause some error
  (4) All equations used are the standard statistical mechanics
      equations for an ideal gas
  (5) All vibrations are strictly harmonic

freq.      36.20  E(vib)   ...       0.54 
freq.      71.48  E(vib)   ...       0.50 
freq.      82.87  E(vib)   ...       0.48 
freq.      91.06  E(vib)   ...       0.47 
freq.     105.41  E(vib)   ...       0.45 
freq.     139.08  E(vib)   ...       0.42 
freq.     231.48  E(vib)   ...       0.32 
freq.     276.52  E(vib)   ...       0.28 
freq.     312.29  E(vib)   ...       0.25 
freq.     363.90  E(vib)   ...       0.22 
freq.     410.23  E(vib)   ...       0.19 
freq.     442.91  E(vib)   ...       0.17 
freq.     519.84  E(vib)   ...       0.13 
freq.     547.05  E(vib)   ...       0.12 
freq.     558.12  E(vib)   ...       0.12 
freq.     597.28  E(vib)   ...       0.10 
freq.     602.20  E(vib)   ...       0.10 
freq.     640.29  E(vib)   ...       0.09 
freq.     672.95  E(vib)   ...       0.08 
freq.     727.07  E(vib)   ...       0.06 
freq.     752.35  E(vib)   ...       0.06 
freq.     780.47  E(vib)   ...       0.05 
freq.     818.82  E(vib)   ...       0.05 
freq.     844.01  E(vib)   ...       0.04 
freq.     903.19  E(vib)   ...       0.03 
freq.     943.20  E(vib)   ...       0.03 
freq.     997.11  E(vib)   ...       0.02 
freq.    1012.22  E(vib)   ...       0.02 
freq.    1017.32  E(vib)   ...       0.02 
freq.    1047.25  E(vib)   ...       0.02 
freq.    1059.84  E(vib)   ...       0.02 
freq.    1110.99  E(vib)   ...       0.01 
freq.    1130.21  E(vib)   ...       0.01 
freq.    1166.92  E(vib)   ...       0.01 
freq.    1204.82  E(vib)   ...       0.01 
freq.    1234.90  E(vib)   ...       0.01 
freq.    1244.92  E(vib)   ...       0.01 
freq.    1282.69  E(vib)   ...       0.01 
freq.    1366.27  E(vib)   ...       0.01 
freq.    1379.52  E(vib)   ...       0.01 
freq.    1382.38  E(vib)   ...       0.01 
freq.    1439.14  E(vib)   ...       0.00 
freq.    1446.53  E(vib)   ...       0.00 
freq.    1484.99  E(vib)   ...       0.00 
freq.    1517.54  E(vib)   ...       0.00 
freq.    1626.61  E(vib)   ...       0.00 
freq.    1662.22  E(vib)   ...       0.00 
freq.    1803.54  E(vib)   ...       0.00 
freq.    1850.42  E(vib)   ...       0.00 
freq.    3051.94  E(vib)   ...       0.00 
freq.    3131.61  E(vib)   ...       0.00 
freq.    3176.81  E(vib)   ...       0.00 
freq.    3182.17  E(vib)   ...       0.00 
freq.    3195.68  E(vib)   ...       0.00 
freq.    3205.75  E(vib)   ...       0.00 
freq.    3212.24  E(vib)   ...       0.00 
freq.    3754.63  E(vib)   ...       0.00 

------------
INNER ENERGY
------------

The inner energy is: U= E(el) + E(ZPE) + E(vib) + E(rot) + E(trans)
    E(el)   - is the total energy from the electronic structure calculation
              = E(kin-el) + E(nuc-el) + E(el-el) + E(nuc-nuc)
    E(ZPE)  - the the zero temperature vibrational energy from the frequency calculation
    E(vib)  - the the finite temperature correction to E(ZPE) due to population
              of excited vibrational states
    E(rot)  - is the rotational thermal energy
    E(trans)- is the translational thermal energy

Summary of contributions to the inner energy U:
Electronic energy                ...   -647.94202487 Eh
Zero point energy                ...      0.15685061 Eh      98.43 kcal/mol
Thermal vibrational correction   ...      0.00887746 Eh       5.57 kcal/mol
Thermal rotational correction    ...      0.00141627 Eh       0.89 kcal/mol
Thermal translational correction ...      0.00141627 Eh       0.89 kcal/mol
-----------------------------------------------------------------------
Total thermal energy                   -647.77346426 Eh


Summary of corrections to the electronic energy:
(perhaps to be used in another calculation)
Total thermal correction                  0.01171000 Eh       7.35 kcal/mol
Non-thermal (ZPE) correction              0.15685061 Eh      98.43 kcal/mol
-----------------------------------------------------------------------
Total correction                          0.16856061 Eh     105.77 kcal/mol


--------
ENTHALPY
--------

The enthalpy is H = U + kB*T
                kB is Boltzmann's constant
Total free energy                 ...   -647.77346426 Eh 
Thermal Enthalpy correction       ...      0.00094421 Eh       0.59 kcal/mol
-----------------------------------------------------------------------
Total Enthalpy                    ...   -647.77252005 Eh


Note: Only C1 symmetry has been detected, increase convergence thresholds 
      if your molecule has a higher symmetry. Symmetry factor of 1.0 is   
      used for the rotational entropy correction. 
 

Note: Rotational entropy computed according to Herzberg 
Infrared and Raman Spectra, Chapter V,1, Van Nostrand Reinhold, 1945 
Point Group:  C1, Symmetry Number:   1  
Rotational constants in cm-1:     0.038243     0.024958     0.016789 

Vibrational entropy computed according to the QRRHO of S. Grimme
Chem.Eur.J. 2012 18 9955


-------
ENTROPY
-------

The entropy contributions are T*S = T*(S(el)+S(vib)+S(rot)+S(trans))
     S(el)   - electronic entropy
     S(vib)  - vibrational entropy
     S(rot)  - rotational entropy
     S(trans)- translational entropy
The entropies will be listed as mutliplied by the temperature to get
units of energy

Electronic entropy                ...      0.00000000 Eh      0.00 kcal/mol
Vibrational entropy               ...      0.01560402 Eh      9.79 kcal/mol
Rotational entropy                ...      0.01472335 Eh      9.24 kcal/mol
Translational entropy             ...      0.01970496 Eh     12.37 kcal/mol
-----------------------------------------------------------------------
Final entropy term                ...      0.05003233 Eh     31.40 kcal/mol

In case the symmetry of your molecule has not been determined correctly
or in case you have a reason to use a different symmetry number we print 
out the resulting rotational entropy values for sn=1,12 :
 --------------------------------------------------------
|  sn= 1 | S(rot)=       0.01472335 Eh      9.24 kcal/mol|
|  sn= 2 | S(rot)=       0.01406890 Eh      8.83 kcal/mol|
|  sn= 3 | S(rot)=       0.01368606 Eh      8.59 kcal/mol|
|  sn= 4 | S(rot)=       0.01341444 Eh      8.42 kcal/mol|
|  sn= 5 | S(rot)=       0.01320375 Eh      8.29 kcal/mol|
|  sn= 6 | S(rot)=       0.01303161 Eh      8.18 kcal/mol|
|  sn= 7 | S(rot)=       0.01288606 Eh      8.09 kcal/mol|
|  sn= 8 | S(rot)=       0.01275998 Eh      8.01 kcal/mol|
|  sn= 9 | S(rot)=       0.01264877 Eh      7.94 kcal/mol|
|  sn=10 | S(rot)=       0.01254930 Eh      7.87 kcal/mol|
|  sn=11 | S(rot)=       0.01245931 Eh      7.82 kcal/mol|
|  sn=12 | S(rot)=       0.01237715 Eh      7.77 kcal/mol|
 --------------------------------------------------------


-------------------
GIBBS FREE ENERGY
-------------------

The Gibbs free energy is G = H - T*S

Total enthalpy                    ...   -647.77252005 Eh 
Total entropy correction          ...     -0.05003233 Eh    -31.40 kcal/mol
-----------------------------------------------------------------------
Final Gibbs free energy         ...   -647.82255237 Eh

For completeness - the Gibbs free energy minus the electronic energy
G-E(el)                           ...      0.11947249 Eh     74.97 kcal/mol


Timings for individual modules:

Sum of individual times         ...    19516.572 sec (= 325.276 min)
GTO integral calculation        ...        3.875 sec (=   0.065 min)   0.0 %
SCF iterations                  ...     3136.801 sec (=  52.280 min)  16.1 %
SCF Gradient evaluation         ...     1273.039 sec (=  21.217 min)   6.5 %
Geometry relaxation             ...        1.183 sec (=   0.020 min)   0.0 %
Analytical frequency calculation...    15101.674 sec (= 251.695 min)  77.4 %
                             ****ORCA TERMINATED NORMALLY****
TOTAL RUN TIME: 0 days 5 hours 25 minutes 18 seconds 703 msec
